LAMMPS data file generated from MC_GPU coords

7695 atoms
7695 ellipsoids
1 atom types

-11.540205 11.540205 xlo xhi
-11.540205 11.540205 ylo yhi
-11.540205 11.540205 zlo zhi

Atoms

1 1 1 1.0000 -14.69322000 -14.69322000 -14.69322000
2 1 1 1.0000 -13.57076000 -14.69322000 -14.69322000
3 1 1 1.0000 -14.69322000 -13.57076000 -14.69322000
4 1 1 1.0000 -11.75458000 -14.69322000 -14.69322000
5 1 1 1.0000 -13.22390000 -14.13199000 -13.78513000
6 1 1 1.0000 -12.66267000 -15.04008000 -14.13199000
7 1 1 1.0000 -12.66267000 -15.04008000 -12.31581000
8 1 1 1.0000 -11.75458000 -13.57076000 -14.69322000
9 1 1 1.0000 -18.53995000 -15.04008000 -14.13199000
10 1 1 1.0000 -16.50940000 -14.69322000 -14.69322000
11 1 1 1.0000 -17.97872000 -14.13199000 -13.78513000
12 1 1 1.0000 -17.41749000 -15.04008000 -14.13199000
13 1 1 1.0000 -16.50940000 -13.57076000 -14.69322000
14 1 1 1.0000 -15.60131000 -15.04008000 -14.13199000
15 1 1 1.0000 -15.60131000 -15.04008000 -12.31581000
16 1 1 1.0000 -14.69322000 -14.69322000 -13.57076000
17 1 1 1.0000 -14.13199000 -13.78513000 -13.22390000
18 1 1 1.0000 -14.69322000 -14.69322000 -11.75458000
19 1 1 1.0000 -15.04008000 -14.13199000 -12.66267000
20 1 1 1.0000 -13.57076000 -14.69322000 -11.75458000
21 1 1 1.0000 -15.04008000 -14.13199000 -18.53995000
22 1 1 1.0000 -14.69322000 -11.75458000 -14.69322000
23 1 1 1.0000 -13.78513000 -13.22390000 -14.13199000
24 1 1 1.0000 -14.13199000 -12.66267000 -15.04008000
25 1 1 1.0000 -13.57076000 -11.75458000 -14.69322000
26 1 1 1.0000 -12.66267000 -13.22390000 -14.13199000
27 1 1 1.0000 -14.13199000 -12.66267000 -13.22390000
28 1 1 1.0000 -11.75458000 -14.69322000 -13.57076000
29 1 1 1.0000 -13.22390000 -14.13199000 -12.66267000
30 1 1 1.0000 -14.69322000 -13.57076000 -11.75458000
31 1 1 1.0000 -12.66267000 -13.22390000 -12.31581000
32 1 1 1.0000 -11.75458000 -14.69322000 -11.75458000
33 1 1 1.0000 -13.22390000 -14.13199000 -18.53995000
34 1 1 1.0000 -12.10144000 -14.13199000 -12.66267000
35 1 1 1.0000 -13.57076000 -13.57076000 -11.75458000
36 1 1 1.0000 -12.66267000 -15.04008000 -18.88681000
37 1 1 1.0000 -12.10144000 -14.13199000 -18.53995000
38 1 1 1.0000 -12.66267000 -15.04008000 -17.07063000
39 1 1 1.0000 -12.31581000 -12.66267000 -15.04008000
40 1 1 1.0000 -11.75458000 -11.75458000 -14.69322000
41 1 1 1.0000 -18.53995000 -13.22390000 -14.13199000
42 1 1 1.0000 -12.31581000 -12.66267000 -13.22390000
43 1 1 1.0000 -18.88681000 -12.66267000 -15.04008000
44 1 1 1.0000 -12.66267000 -12.10144000 -14.13199000
45 1 1 1.0000 -11.75458000 -13.57076000 -13.57076000
46 1 1 1.0000 -17.41749000 -13.22390000 -14.13199000
47 1 1 1.0000 -18.88681000 -12.66267000 -13.22390000
48 1 1 1.0000 -16.50940000 -14.69322000 -13.57076000
49 1 1 1.0000 -17.97872000 -14.13199000 -12.66267000
50 1 1 1.0000 -11.75458000 -13.57076000 -11.75458000
51 1 1 1.0000 -18.53995000 -15.04008000 -18.88681000
52 1 1 1.0000 -16.50940000 -14.69322000 -11.75458000
53 1 1 1.0000 -17.97872000 -14.13199000 -18.53995000
54 1 1 1.0000 -18.53995000 -15.04008000 -17.07063000
55 1 1 1.0000 -17.41749000 -15.04008000 -18.88681000
56 1 1 1.0000 -17.41749000 -15.04008000 -17.07063000
57 1 1 1.0000 -17.07063000 -12.66267000 -15.04008000
58 1 1 1.0000 -18.53995000 -12.10144000 -14.13199000
59 1 1 1.0000 -16.50940000 -11.75458000 -14.69322000
60 1 1 1.0000 -17.97872000 -18.88681000 -13.78513000
61 1 1 1.0000 -15.60131000 -13.22390000 -14.13199000
62 1 1 1.0000 -17.07063000 -12.66267000 -13.22390000
63 1 1 1.0000 -15.94817000 -12.66267000 -15.04008000
64 1 1 1.0000 -17.41749000 -12.10144000 -14.13199000
65 1 1 1.0000 -16.16254000 -14.13199000 -12.66267000
66 1 1 1.0000 -16.50940000 -13.57076000 -13.57076000
67 1 1 1.0000 -15.60131000 -13.22390000 -12.31581000
68 1 1 1.0000 -15.94817000 -12.66267000 -13.22390000
69 1 1 1.0000 -16.16254000 -14.13199000 -18.53995000
70 1 1 1.0000 -16.50940000 -13.57076000 -11.75458000
71 1 1 1.0000 -15.60131000 -15.04008000 -18.88681000
72 1 1 1.0000 -15.60131000 -15.04008000 -17.07063000
73 1 1 1.0000 -15.60131000 -12.10144000 -14.13199000
74 1 1 1.0000 -15.04008000 -12.31581000 -12.66267000
75 1 1 1.0000 -14.13199000 -13.78513000 -17.97872000
76 1 1 1.0000 -14.69322000 -14.69322000 -16.50940000
77 1 1 1.0000 -15.04008000 -14.13199000 -17.41749000
78 1 1 1.0000 -13.57076000 -14.69322000 -16.50940000
79 1 1 1.0000 -15.04008000 -14.13199000 -15.60131000
80 1 1 1.0000 -14.13199000 -18.53995000 -15.04008000
81 1 1 1.0000 -14.69322000 -11.75458000 -13.57076000
82 1 1 1.0000 -14.13199000 -18.53995000 -13.22390000
83 1 1 1.0000 -13.22390000 -12.31581000 -12.66267000
84 1 1 1.0000 -14.69322000 -11.75458000 -11.75458000
85 1 1 1.0000 -13.57076000 -11.75458000 -13.57076000
86 1 1 1.0000 -15.04008000 -18.88681000 -12.66267000
87 1 1 1.0000 -14.13199000 -12.66267000 -12.10144000
88 1 1 1.0000 -13.57076000 -11.75458000 -11.75458000
89 1 1 1.0000 -15.04008000 -18.88681000 -18.53995000
90 1 1 1.0000 -12.66267000 -13.22390000 -18.88681000
91 1 1 1.0000 -14.13199000 -12.66267000 -17.97872000
92 1 1 1.0000 -13.22390000 -14.13199000 -17.41749000
93 1 1 1.0000 -14.69322000 -13.57076000 -16.50940000
94 1 1 1.0000 -18.88681000 -13.78513000 -17.97872000
95 1 1 1.0000 -12.66267000 -13.22390000 -17.07063000
96 1 1 1.0000 -14.13199000 -12.66267000 -16.16254000
97 1 1 1.0000 -11.75458000 -14.69322000 -16.50940000
98 1 1 1.0000 -13.22390000 -14.13199000 -15.60131000
99 1 1 1.0000 -12.10144000 -14.13199000 -17.41749000
100 1 1 1.0000 -13.57076000 -13.57076000 -16.50940000
101 1 1 1.0000 -12.66267000 -15.04008000 -15.94817000
102 1 1 1.0000 -12.10144000 -14.13199000 -15.60131000
103 1 1 1.0000 -14.69322000 -16.50940000 -14.69322000
104 1 1 1.0000 -13.78513000 -17.97872000 -14.13199000
105 1 1 1.0000 -14.13199000 -17.41749000 -15.04008000
106 1 1 1.0000 -13.57076000 -16.50940000 -14.69322000
107 1 1 1.0000 -18.88681000 -18.53995000 -15.04008000
108 1 1 1.0000 -12.66267000 -17.97872000 -14.13199000
109 1 1 1.0000 -14.13199000 -17.41749000 -13.22390000
110 1 1 1.0000 -11.75458000 -11.75458000 -13.57076000
111 1 1 1.0000 -13.22390000 -18.88681000 -12.66267000
112 1 1 1.0000 -18.88681000 -18.53995000 -13.22390000
113 1 1 1.0000 -12.66267000 -17.97872000 -12.31581000
114 1 1 1.0000 -17.97872000 -12.31581000 -12.66267000
115 1 1 1.0000 -11.75458000 -11.75458000 -11.75458000
116 1 1 1.0000 -13.22390000 -18.88681000 -18.53995000
117 1 1 1.0000 -12.10144000 -18.88681000 -12.66267000
118 1 1 1.0000 -18.53995000 -13.22390000 -18.88681000
119 1 1 1.0000 -12.31581000 -12.66267000 -17.97872000
120 1 1 1.0000 -18.88681000 -12.66267000 -12.10144000
121 1 1 1.0000 -12.66267000 -12.10144000 -18.88681000
122 1 1 1.0000 -17.97872000 -12.31581000 -18.53995000
123 1 1 1.0000 -11.75458000 -11.75458000 -17.63186000
124 1 1 1.0000 -17.07063000 -13.78513000 -17.97872000
125 1 1 1.0000 -18.53995000 -13.22390000 -17.07063000
126 1 1 1.0000 -17.41749000 -13.22390000 -18.88681000
127 1 1 1.0000 -18.88681000 -12.66267000 -17.97872000
128 1 1 1.0000 -12.66267000 -12.10144000 -17.07063000
129 1 1 1.0000 -17.97872000 -14.13199000 -17.41749000
130 1 1 1.0000 -11.75458000 -13.57076000 -16.50940000
131 1 1 1.0000 -17.41749000 -13.22390000 -17.07063000
132 1 1 1.0000 -18.88681000 -12.66267000 -16.16254000
133 1 1 1.0000 -16.50940000 -14.69322000 -16.50940000
134 1 1 1.0000 -11.75458000 -16.50940000 -14.69322000
135 1 1 1.0000 -17.07063000 -18.53995000 -15.04008000
136 1 1 1.0000 -18.53995000 -17.97872000 -14.13199000
137 1 1 1.0000 -18.88681000 -17.41749000 -15.04008000
138 1 1 1.0000 -17.97872000 -17.07063000 -13.78513000
139 1 1 1.0000 -17.07063000 -18.53995000 -13.22390000
140 1 1 1.0000 -18.53995000 -17.97872000 -12.31581000
141 1 1 1.0000 -17.41749000 -17.97872000 -14.13199000
142 1 1 1.0000 -18.88681000 -17.41749000 -13.22390000
143 1 1 1.0000 -17.63186000 -11.75458000 -11.75458000
144 1 1 1.0000 -16.50940000 -11.75458000 -13.57076000
145 1 1 1.0000 -17.97872000 -18.88681000 -12.66267000
146 1 1 1.0000 -17.07063000 -12.66267000 -12.10144000
147 1 1 1.0000 -17.41749000 -17.97872000 -12.31581000
148 1 1 1.0000 -16.50940000 -11.75458000 -11.75458000
149 1 1 1.0000 -17.97872000 -18.88681000 -18.53995000
150 1 1 1.0000 -15.60131000 -13.22390000 -18.88681000
151 1 1 1.0000 -17.07063000 -12.66267000 -17.97872000
152 1 1 1.0000 -16.16254000 -14.13199000 -17.41749000
153 1 1 1.0000 -16.50940000 -11.75458000 -17.63186000
154 1 1 1.0000 -15.60131000 -13.22390000 -17.07063000
155 1 1 1.0000 -17.07063000 -12.66267000 -16.16254000
156 1 1 1.0000 -15.94817000 -12.66267000 -17.97872000
157 1 1 1.0000 -16.16254000 -14.13199000 -15.60131000
158 1 1 1.0000 -16.50940000 -13.57076000 -16.50940000
159 1 1 1.0000 -15.60131000 -15.04008000 -15.94817000
160 1 1 1.0000 -17.07063000 -17.41749000 -15.04008000
161 1 1 1.0000 -16.50940000 -16.50940000 -14.69322000
162 1 1 1.0000 -17.07063000 -17.41749000 -13.22390000
163 1 1 1.0000 -16.16254000 -18.88681000 -12.66267000
164 1 1 1.0000 -15.60131000 -17.97872000 -12.31581000
165 1 1 1.0000 -15.60131000 -12.10144000 -18.88681000
166 1 1 1.0000 -15.60131000 -12.10144000 -17.07063000
167 1 1 1.0000 -15.04008000 -12.31581000 -15.60131000
168 1 1 1.0000 -15.04008000 -17.07063000 -12.66267000
169 1 1 1.0000 -14.13199000 -18.53995000 -12.10144000
170 1 1 1.0000 -15.04008000 -17.07063000 -18.53995000
171 1 1 1.0000 -14.13199000 -18.53995000 -17.97872000
172 1 1 1.0000 -14.69322000 -11.75458000 -16.50940000
173 1 1 1.0000 -15.04008000 -18.88681000 -17.41749000
174 1 1 1.0000 -14.13199000 -18.53995000 -16.16254000
175 1 1 1.0000 -13.22390000 -12.31581000 -15.60131000
176 1 1 1.0000 -13.57076000 -11.75458000 -16.50940000
177 1 1 1.0000 -15.04008000 -18.88681000 -15.60131000
178 1 1 1.0000 -12.66267000 -13.22390000 -15.94817000
179 1 1 1.0000 -14.13199000 -15.60131000 -15.04008000
180 1 1 1.0000 -14.69322000 -16.50940000 -13.57076000
181 1 1 1.0000 -12.66267000 -16.16254000 -14.13199000
182 1 1 1.0000 -14.13199000 -15.60131000 -13.22390000
183 1 1 1.0000 -13.22390000 -17.07063000 -12.66267000
184 1 1 1.0000 -14.69322000 -16.50940000 -11.75458000
185 1 1 1.0000 -13.57076000 -16.50940000 -13.57076000
186 1 1 1.0000 -15.04008000 -15.94817000 -12.66267000
187 1 1 1.0000 -13.78513000 -17.97872000 -18.88681000
188 1 1 1.0000 -14.13199000 -17.41749000 -12.10144000
189 1 1 1.0000 -11.75458000 -17.63186000 -11.75458000
190 1 1 1.0000 -13.22390000 -17.07063000 -18.53995000
191 1 1 1.0000 -12.10144000 -17.07063000 -12.66267000
192 1 1 1.0000 -13.57076000 -16.50940000 -11.75458000
193 1 1 1.0000 -12.31581000 -18.53995000 -17.97872000
194 1 1 1.0000 -13.78513000 -17.97872000 -17.07063000
195 1 1 1.0000 -12.66267000 -17.97872000 -18.88681000
196 1 1 1.0000 -14.13199000 -17.41749000 -17.97872000
197 1 1 1.0000 -13.22390000 -18.88681000 -17.41749000
198 1 1 1.0000 -18.88681000 -18.53995000 -17.97872000
199 1 1 1.0000 -12.66267000 -17.97872000 -17.07063000
200 1 1 1.0000 -14.13199000 -17.41749000 -16.16254000
201 1 1 1.0000 -17.97872000 -12.31581000 -17.41749000
202 1 1 1.0000 -11.75458000 -11.75458000 -16.50940000
203 1 1 1.0000 -13.22390000 -18.88681000 -15.60131000
204 1 1 1.0000 -17.97872000 -12.31581000 -15.60131000
205 1 1 1.0000 -12.10144000 -18.88681000 -15.60131000
206 1 1 1.0000 -12.31581000 -15.60131000 -15.04008000
207 1 1 1.0000 -18.53995000 -16.16254000 -14.13199000
208 1 1 1.0000 -12.31581000 -15.60131000 -13.22390000
209 1 1 1.0000 -18.88681000 -15.60131000 -15.04008000
210 1 1 1.0000 -11.75458000 -16.50940000 -13.57076000
211 1 1 1.0000 -13.22390000 -15.94817000 -12.66267000
212 1 1 1.0000 -17.41749000 -16.16254000 -14.13199000
213 1 1 1.0000 -18.88681000 -15.60131000 -13.22390000
214 1 1 1.0000 -17.97872000 -17.07063000 -12.66267000
215 1 1 1.0000 -11.75458000 -16.50940000 -11.75458000
216 1 1 1.0000 -18.53995000 -17.97872000 -18.88681000
217 1 1 1.0000 -12.31581000 -17.41749000 -17.97872000
218 1 1 1.0000 -16.50940000 -17.63186000 -11.75458000
219 1 1 1.0000 -17.97872000 -17.07063000 -18.53995000
220 1 1 1.0000 -11.75458000 -16.50940000 -17.63186000
221 1 1 1.0000 -17.07063000 -18.53995000 -17.97872000
222 1 1 1.0000 -18.53995000 -17.97872000 -17.07063000
223 1 1 1.0000 -17.41749000 -17.97872000 -18.88681000
224 1 1 1.0000 -18.88681000 -17.41749000 -17.97872000
225 1 1 1.0000 -17.63186000 -11.75458000 -16.50940000
226 1 1 1.0000 -17.97872000 -18.88681000 -17.41749000
227 1 1 1.0000 -17.07063000 -18.53995000 -16.16254000
228 1 1 1.0000 -15.94817000 -18.53995000 -17.97872000
229 1 1 1.0000 -17.41749000 -17.97872000 -17.07063000
230 1 1 1.0000 -16.50940000 -11.75458000 -16.50940000
231 1 1 1.0000 -17.97872000 -18.88681000 -15.60131000
232 1 1 1.0000 -15.60131000 -13.22390000 -15.94817000
233 1 1 1.0000 -17.07063000 -15.60131000 -15.04008000
234 1 1 1.0000 -15.60131000 -16.16254000 -14.13199000
235 1 1 1.0000 -17.07063000 -15.60131000 -13.22390000
236 1 1 1.0000 -15.94817000 -15.60131000 -15.04008000
237 1 1 1.0000 -16.16254000 -17.07063000 -12.66267000
238 1 1 1.0000 -17.63186000 -16.50940000 -11.75458000
239 1 1 1.0000 -16.50940000 -16.50940000 -13.57076000
240 1 1 1.0000 -17.97872000 -15.94817000 -12.66267000
241 1 1 1.0000 -15.94817000 -15.60131000 -13.22390000
242 1 1 1.0000 -16.16254000 -17.07063000 -18.53995000
243 1 1 1.0000 -16.50940000 -16.50940000 -11.75458000
244 1 1 1.0000 -17.97872000 -15.94817000 -18.53995000
245 1 1 1.0000 -15.60131000 -17.97872000 -18.88681000
246 1 1 1.0000 -17.07063000 -17.41749000 -17.97872000
247 1 1 1.0000 -16.50940000 -16.50940000 -17.63186000
248 1 1 1.0000 -15.60131000 -17.97872000 -17.07063000
249 1 1 1.0000 -16.16254000 -18.88681000 -15.60131000
250 1 1 1.0000 -15.04008000 -17.07063000 -17.41749000
251 1 1 1.0000 -15.04008000 -17.07063000 -15.60131000
252 1 1 1.0000 -14.13199000 -15.60131000 -12.10144000
253 1 1 1.0000 -12.66267000 -16.16254000 -18.88681000
254 1 1 1.0000 -13.22390000 -17.07063000 -17.41749000
255 1 1 1.0000 -14.69322000 -16.50940000 -16.50940000
256 1 1 1.0000 -12.66267000 -16.16254000 -17.07063000
257 1 1 1.0000 -14.13199000 -15.60131000 -16.16254000
258 1 1 1.0000 -11.75458000 -17.63186000 -16.50940000
259 1 1 1.0000 -13.22390000 -17.07063000 -15.60131000
260 1 1 1.0000 -13.57076000 -16.50940000 -16.50940000
261 1 1 1.0000 -15.04008000 -15.94817000 -15.60131000
262 1 1 1.0000 -12.66267000 -17.97872000 -15.94817000
263 1 1 1.0000 -12.10144000 -17.07063000 -15.60131000
264 1 1 1.0000 -12.31581000 -15.60131000 -17.97872000
265 1 1 1.0000 -18.88681000 -15.60131000 -12.10144000
266 1 1 1.0000 -18.53995000 -16.16254000 -17.07063000
267 1 1 1.0000 -18.88681000 -15.60131000 -17.97872000
268 1 1 1.0000 -17.97872000 -17.07063000 -17.41749000
269 1 1 1.0000 -11.75458000 -16.50940000 -16.50940000
270 1 1 1.0000 -13.22390000 -15.94817000 -15.60131000
271 1 1 1.0000 -18.53995000 -17.97872000 -15.94817000
272 1 1 1.0000 -18.88681000 -15.60131000 -16.16254000
273 1 1 1.0000 -16.50940000 -17.63186000 -16.50940000
274 1 1 1.0000 -17.97872000 -17.07063000 -15.60131000
275 1 1 1.0000 -17.07063000 -15.60131000 -12.10144000
276 1 1 1.0000 -15.60131000 -16.16254000 -18.88681000
277 1 1 1.0000 -17.07063000 -15.60131000 -17.97872000
278 1 1 1.0000 -17.63186000 -16.50940000 -16.50940000
279 1 1 1.0000 -15.60131000 -16.16254000 -17.07063000
280 1 1 1.0000 -17.07063000 -15.60131000 -16.16254000
281 1 1 1.0000 -15.94817000 -15.60131000 -17.97872000
282 1 1 1.0000 -16.16254000 -17.07063000 -15.60131000
283 1 1 1.0000 -16.50940000 -16.50940000 -16.50940000
284 1 1 1.0000 -17.97872000 -15.94817000 -15.60131000
285 1 1 1.0000 -15.60131000 -17.97872000 -15.94817000
286 1 1 1.0000 -6.99975000 -14.69322000 -14.69322000
287 1 1 1.0000 -5.87729000 -14.69322000 -14.69322000
288 1 1 1.0000 -6.99975000 -13.57076000 -14.69322000
289 1 1 1.0000 -4.06111000 -14.69322000 -14.69322000
290 1 1 1.0000 -5.53043000 -14.13199000 -13.78513000
291 1 1 1.0000 -4.96920000 -15.04008000 -14.13199000
292 1 1 1.0000 -4.96920000 -15.04008000 -12.31581000
293 1 1 1.0000 -4.06111000 -13.57076000 -14.69322000
294 1 1 1.0000 -10.84648000 -15.04008000 -14.13199000
295 1 1 1.0000 -8.81593000 -14.69322000 -14.69322000
296 1 1 1.0000 -10.28525000 -14.13199000 -13.78513000
297 1 1 1.0000 -9.72402000 -15.04008000 -14.13199000
298 1 1 1.0000 -8.81593000 -13.57076000 -14.69322000
299 1 1 1.0000 -7.90784000 -15.04008000 -14.13199000
300 1 1 1.0000 -7.90784000 -15.04008000 -12.31581000
301 1 1 1.0000 -6.99975000 -14.69322000 -13.57076000
302 1 1 1.0000 -6.43852000 -13.78513000 -13.22390000
303 1 1 1.0000 -6.99975000 -14.69322000 -11.75458000
304 1 1 1.0000 -7.34661000 -14.13199000 -12.66267000
305 1 1 1.0000 -5.87729000 -14.69322000 -11.75458000
306 1 1 1.0000 -7.34661000 -14.13199000 -18.53995000
307 1 1 1.0000 -6.99975000 -11.75458000 -14.69322000
308 1 1 1.0000 -6.09166000 -13.22390000 -14.13199000
309 1 1 1.0000 -6.43852000 -12.66267000 -15.04008000
310 1 1 1.0000 -5.87729000 -11.75458000 -14.69322000
311 1 1 1.0000 -4.96920000 -13.22390000 -14.13199000
312 1 1 1.0000 -6.43852000 -12.66267000 -13.22390000
313 1 1 1.0000 -4.06111000 -14.69322000 -13.57076000
314 1 1 1.0000 -5.53043000 -14.13199000 -12.66267000
315 1 1 1.0000 -6.99975000 -13.57076000 -11.75458000
316 1 1 1.0000 -4.96920000 -13.22390000 -12.31581000
317 1 1 1.0000 -4.06111000 -14.69322000 -11.75458000
318 1 1 1.0000 -5.53043000 -14.13199000 -18.53995000
319 1 1 1.0000 -4.40797000 -14.13199000 -12.66267000
320 1 1 1.0000 -5.87729000 -13.57076000 -11.75458000
321 1 1 1.0000 -4.96920000 -15.04008000 -18.88681000
322 1 1 1.0000 -4.40797000 -14.13199000 -18.53995000
323 1 1 1.0000 -4.96920000 -15.04008000 -17.07063000
324 1 1 1.0000 -4.62234000 -12.66267000 -15.04008000
325 1 1 1.0000 -4.06111000 -11.75458000 -14.69322000
326 1 1 1.0000 -10.84648000 -13.22390000 -14.13199000
327 1 1 1.0000 -4.62234000 -12.66267000 -13.22390000
328 1 1 1.0000 -11.19334000 -12.66267000 -15.04008000
329 1 1 1.0000 -4.96920000 -12.10144000 -14.13199000
330 1 1 1.0000 -4.06111000 -13.57076000 -13.57076000
331 1 1 1.0000 -9.72402000 -13.22390000 -14.13199000
332 1 1 1.0000 -11.19334000 -12.66267000 -13.22390000
333 1 1 1.0000 -8.81593000 -14.69322000 -13.57076000
334 1 1 1.0000 -10.28525000 -14.13199000 -12.66267000
335 1 1 1.0000 -4.06111000 -13.57076000 -11.75458000
336 1 1 1.0000 -10.84648000 -15.04008000 -18.88681000
337 1 1 1.0000 -8.81593000 -14.69322000 -11.75458000
338 1 1 1.0000 -10.28525000 -14.13199000 -18.53995000
339 1 1 1.0000 -10.84648000 -15.04008000 -17.07063000
340 1 1 1.0000 -9.72402000 -15.04008000 -18.88681000
341 1 1 1.0000 -9.72402000 -15.04008000 -17.07063000
342 1 1 1.0000 -9.37716000 -12.66267000 -15.04008000
343 1 1 1.0000 -10.84648000 -12.10144000 -14.13199000
344 1 1 1.0000 -8.81593000 -11.75458000 -14.69322000
345 1 1 1.0000 -10.28525000 -18.88681000 -13.78513000
346 1 1 1.0000 -7.90784000 -13.22390000 -14.13199000
347 1 1 1.0000 -9.37716000 -12.66267000 -13.22390000
348 1 1 1.0000 -8.25470000 -12.66267000 -15.04008000
349 1 1 1.0000 -9.72402000 -12.10144000 -14.13199000
350 1 1 1.0000 -8.46907000 -14.13199000 -12.66267000
351 1 1 1.0000 -8.81593000 -13.57076000 -13.57076000
352 1 1 1.0000 -7.90784000 -13.22390000 -12.31581000
353 1 1 1.0000 -8.25470000 -12.66267000 -13.22390000
354 1 1 1.0000 -8.46907000 -14.13199000 -18.53995000
355 1 1 1.0000 -8.81593000 -13.57076000 -11.75458000
356 1 1 1.0000 -7.90784000 -15.04008000 -18.88681000
357 1 1 1.0000 -7.90784000 -15.04008000 -17.07063000
358 1 1 1.0000 -7.90784000 -12.10144000 -14.13199000
359 1 1 1.0000 -7.34661000 -12.31581000 -12.66267000
360 1 1 1.0000 -6.43852000 -13.78513000 -17.97872000
361 1 1 1.0000 -6.99975000 -14.69322000 -16.50940000
362 1 1 1.0000 -7.34661000 -14.13199000 -17.41749000
363 1 1 1.0000 -5.87729000 -14.69322000 -16.50940000
364 1 1 1.0000 -7.34661000 -14.13199000 -15.60131000
365 1 1 1.0000 -6.43852000 -18.53995000 -15.04008000
366 1 1 1.0000 -6.99975000 -11.75458000 -13.57076000
367 1 1 1.0000 -6.43852000 -18.53995000 -13.22390000
368 1 1 1.0000 -5.53043000 -12.31581000 -12.66267000
369 1 1 1.0000 -6.99975000 -11.75458000 -11.75458000
370 1 1 1.0000 -5.87729000 -11.75458000 -13.57076000
371 1 1 1.0000 -7.34661000 -18.88681000 -12.66267000
372 1 1 1.0000 -6.43852000 -12.66267000 -12.10144000
373 1 1 1.0000 -5.87729000 -11.75458000 -11.75458000
374 1 1 1.0000 -7.34661000 -18.88681000 -18.53995000
375 1 1 1.0000 -4.96920000 -13.22390000 -18.88681000
376 1 1 1.0000 -6.43852000 -12.66267000 -17.97872000
377 1 1 1.0000 -5.53043000 -14.13199000 -17.41749000
378 1 1 1.0000 -6.99975000 -13.57076000 -16.50940000
379 1 1 1.0000 -11.19334000 -13.78513000 -17.97872000
380 1 1 1.0000 -4.96920000 -13.22390000 -17.07063000
381 1 1 1.0000 -6.43852000 -12.66267000 -16.16254000
382 1 1 1.0000 -4.06111000 -14.69322000 -16.50940000
383 1 1 1.0000 -5.53043000 -14.13199000 -15.60131000
384 1 1 1.0000 -4.40797000 -14.13199000 -17.41749000
385 1 1 1.0000 -5.87729000 -13.57076000 -16.50940000
386 1 1 1.0000 -4.96920000 -15.04008000 -15.94817000
387 1 1 1.0000 -4.40797000 -14.13199000 -15.60131000
388 1 1 1.0000 -6.99975000 -16.50940000 -14.69322000
389 1 1 1.0000 -6.09166000 -17.97872000 -14.13199000
390 1 1 1.0000 -6.43852000 -17.41749000 -15.04008000
391 1 1 1.0000 -5.87729000 -16.50940000 -14.69322000
392 1 1 1.0000 -11.19334000 -18.53995000 -15.04008000
393 1 1 1.0000 -4.96920000 -17.97872000 -14.13199000
394 1 1 1.0000 -6.43852000 -17.41749000 -13.22390000
395 1 1 1.0000 -4.06111000 -11.75458000 -13.57076000
396 1 1 1.0000 -5.53043000 -18.88681000 -12.66267000
397 1 1 1.0000 -11.19334000 -18.53995000 -13.22390000
398 1 1 1.0000 -4.96920000 -17.97872000 -12.31581000
399 1 1 1.0000 -10.28525000 -12.31581000 -12.66267000
400 1 1 1.0000 -4.06111000 -11.75458000 -11.75458000
401 1 1 1.0000 -5.53043000 -18.88681000 -18.53995000
402 1 1 1.0000 -4.40797000 -18.88681000 -12.66267000
403 1 1 1.0000 -10.84648000 -13.22390000 -18.88681000
404 1 1 1.0000 -4.62234000 -12.66267000 -17.97872000
405 1 1 1.0000 -11.19334000 -12.66267000 -12.10144000
406 1 1 1.0000 -4.96920000 -12.10144000 -18.88681000
407 1 1 1.0000 -10.28525000 -12.31581000 -18.53995000
408 1 1 1.0000 -4.06111000 -11.75458000 -17.63186000
409 1 1 1.0000 -9.37716000 -13.78513000 -17.97872000
410 1 1 1.0000 -10.84648000 -13.22390000 -17.07063000
411 1 1 1.0000 -9.72402000 -13.22390000 -18.88681000
412 1 1 1.0000 -11.19334000 -12.66267000 -17.97872000
413 1 1 1.0000 -4.96920000 -12.10144000 -17.07063000
414 1 1 1.0000 -10.28525000 -14.13199000 -17.41749000
415 1 1 1.0000 -4.06111000 -13.57076000 -16.50940000
416 1 1 1.0000 -9.72402000 -13.22390000 -17.07063000
417 1 1 1.0000 -11.19334000 -12.66267000 -16.16254000
418 1 1 1.0000 -8.81593000 -14.69322000 -16.50940000
419 1 1 1.0000 -4.06111000 -16.50940000 -14.69322000
420 1 1 1.0000 -9.37716000 -18.53995000 -15.04008000
421 1 1 1.0000 -10.84648000 -17.97872000 -14.13199000
422 1 1 1.0000 -11.19334000 -17.41749000 -15.04008000
423 1 1 1.0000 -10.28525000 -17.07063000 -13.78513000
424 1 1 1.0000 -9.37716000 -18.53995000 -13.22390000
425 1 1 1.0000 -10.84648000 -17.97872000 -12.31581000
426 1 1 1.0000 -9.72402000 -17.97872000 -14.13199000
427 1 1 1.0000 -11.19334000 -17.41749000 -13.22390000
428 1 1 1.0000 -9.93839000 -11.75458000 -11.75458000
429 1 1 1.0000 -8.81593000 -11.75458000 -13.57076000
430 1 1 1.0000 -10.28525000 -18.88681000 -12.66267000
431 1 1 1.0000 -9.37716000 -12.66267000 -12.10144000
432 1 1 1.0000 -9.72402000 -17.97872000 -12.31581000
433 1 1 1.0000 -8.81593000 -11.75458000 -11.75458000
434 1 1 1.0000 -10.28525000 -18.88681000 -18.53995000
435 1 1 1.0000 -7.90784000 -13.22390000 -18.88681000
436 1 1 1.0000 -9.37716000 -12.66267000 -17.97872000
437 1 1 1.0000 -8.46907000 -14.13199000 -17.41749000
438 1 1 1.0000 -8.81593000 -11.75458000 -17.63186000
439 1 1 1.0000 -7.90784000 -13.22390000 -17.07063000
440 1 1 1.0000 -9.37716000 -12.66267000 -16.16254000
441 1 1 1.0000 -8.25470000 -12.66267000 -17.97872000
442 1 1 1.0000 -8.46907000 -14.13199000 -15.60131000
443 1 1 1.0000 -8.81593000 -13.57076000 -16.50940000
444 1 1 1.0000 -7.90784000 -15.04008000 -15.94817000
445 1 1 1.0000 -9.37716000 -17.41749000 -15.04008000
446 1 1 1.0000 -8.81593000 -16.50940000 -14.69322000
447 1 1 1.0000 -9.37716000 -17.41749000 -13.22390000
448 1 1 1.0000 -8.46907000 -18.88681000 -12.66267000
449 1 1 1.0000 -7.90784000 -17.97872000 -12.31581000
450 1 1 1.0000 -7.90784000 -12.10144000 -18.88681000
451 1 1 1.0000 -7.90784000 -12.10144000 -17.07063000
452 1 1 1.0000 -7.34661000 -12.31581000 -15.60131000
453 1 1 1.0000 -7.34661000 -17.07063000 -12.66267000
454 1 1 1.0000 -6.43852000 -18.53995000 -12.10144000
455 1 1 1.0000 -7.34661000 -17.07063000 -18.53995000
456 1 1 1.0000 -6.43852000 -18.53995000 -17.97872000
457 1 1 1.0000 -6.99975000 -11.75458000 -16.50940000
458 1 1 1.0000 -7.34661000 -18.88681000 -17.41749000
459 1 1 1.0000 -6.43852000 -18.53995000 -16.16254000
460 1 1 1.0000 -5.53043000 -12.31581000 -15.60131000
461 1 1 1.0000 -5.87729000 -11.75458000 -16.50940000
462 1 1 1.0000 -7.34661000 -18.88681000 -15.60131000
463 1 1 1.0000 -4.96920000 -13.22390000 -15.94817000
464 1 1 1.0000 -6.43852000 -15.60131000 -15.04008000
465 1 1 1.0000 -6.99975000 -16.50940000 -13.57076000
466 1 1 1.0000 -4.96920000 -16.16254000 -14.13199000
467 1 1 1.0000 -6.43852000 -15.60131000 -13.22390000
468 1 1 1.0000 -5.53043000 -17.07063000 -12.66267000
469 1 1 1.0000 -6.99975000 -16.50940000 -11.75458000
470 1 1 1.0000 -5.87729000 -16.50940000 -13.57076000
471 1 1 1.0000 -7.34661000 -15.94817000 -12.66267000
472 1 1 1.0000 -6.09166000 -17.97872000 -18.88681000
473 1 1 1.0000 -6.43852000 -17.41749000 -12.10144000
474 1 1 1.0000 -4.06111000 -17.63186000 -11.75458000
475 1 1 1.0000 -5.53043000 -17.07063000 -18.53995000
476 1 1 1.0000 -4.40797000 -17.07063000 -12.66267000
477 1 1 1.0000 -5.87729000 -16.50940000 -11.75458000
478 1 1 1.0000 -4.62234000 -18.53995000 -17.97872000
479 1 1 1.0000 -6.09166000 -17.97872000 -17.07063000
480 1 1 1.0000 -4.96920000 -17.97872000 -18.88681000
481 1 1 1.0000 -6.43852000 -17.41749000 -17.97872000
482 1 1 1.0000 -5.53043000 -18.88681000 -17.41749000
483 1 1 1.0000 -11.19334000 -18.53995000 -17.97872000
484 1 1 1.0000 -4.96920000 -17.97872000 -17.07063000
485 1 1 1.0000 -6.43852000 -17.41749000 -16.16254000
486 1 1 1.0000 -10.28525000 -12.31581000 -17.41749000
487 1 1 1.0000 -4.06111000 -11.75458000 -16.50940000
488 1 1 1.0000 -5.53043000 -18.88681000 -15.60131000
489 1 1 1.0000 -10.28525000 -12.31581000 -15.60131000
490 1 1 1.0000 -4.40797000 -18.88681000 -15.60131000
491 1 1 1.0000 -4.62234000 -15.60131000 -15.04008000
492 1 1 1.0000 -10.84648000 -16.16254000 -14.13199000
493 1 1 1.0000 -4.62234000 -15.60131000 -13.22390000
494 1 1 1.0000 -11.19334000 -15.60131000 -15.04008000
495 1 1 1.0000 -4.06111000 -16.50940000 -13.57076000
496 1 1 1.0000 -5.53043000 -15.94817000 -12.66267000
497 1 1 1.0000 -9.72402000 -16.16254000 -14.13199000
498 1 1 1.0000 -11.19334000 -15.60131000 -13.22390000
499 1 1 1.0000 -10.28525000 -17.07063000 -12.66267000
500 1 1 1.0000 -4.06111000 -16.50940000 -11.75458000
501 1 1 1.0000 -10.84648000 -17.97872000 -18.88681000
502 1 1 1.0000 -4.62234000 -17.41749000 -17.97872000
503 1 1 1.0000 -8.81593000 -17.63186000 -11.75458000
504 1 1 1.0000 -10.28525000 -17.07063000 -18.53995000
505 1 1 1.0000 -4.06111000 -16.50940000 -17.63186000
506 1 1 1.0000 -9.37716000 -18.53995000 -17.97872000
507 1 1 1.0000 -10.84648000 -17.97872000 -17.07063000
508 1 1 1.0000 -9.72402000 -17.97872000 -18.88681000
509 1 1 1.0000 -11.19334000 -17.41749000 -17.97872000
510 1 1 1.0000 -9.93839000 -11.75458000 -16.50940000
511 1 1 1.0000 -10.28525000 -18.88681000 -17.41749000
512 1 1 1.0000 -9.37716000 -18.53995000 -16.16254000
513 1 1 1.0000 -8.25470000 -18.53995000 -17.97872000
514 1 1 1.0000 -9.72402000 -17.97872000 -17.07063000
515 1 1 1.0000 -8.81593000 -11.75458000 -16.50940000
516 1 1 1.0000 -10.28525000 -18.88681000 -15.60131000
517 1 1 1.0000 -7.90784000 -13.22390000 -15.94817000
518 1 1 1.0000 -9.37716000 -15.60131000 -15.04008000
519 1 1 1.0000 -7.90784000 -16.16254000 -14.13199000
520 1 1 1.0000 -9.37716000 -15.60131000 -13.22390000
521 1 1 1.0000 -8.25470000 -15.60131000 -15.04008000
522 1 1 1.0000 -8.46907000 -17.07063000 -12.66267000
523 1 1 1.0000 -9.93839000 -16.50940000 -11.75458000
524 1 1 1.0000 -8.81593000 -16.50940000 -13.57076000
525 1 1 1.0000 -10.28525000 -15.94817000 -12.66267000
526 1 1 1.0000 -8.25470000 -15.60131000 -13.22390000
527 1 1 1.0000 -8.46907000 -17.07063000 -18.53995000
528 1 1 1.0000 -8.81593000 -16.50940000 -11.75458000
529 1 1 1.0000 -10.28525000 -15.94817000 -18.53995000
530 1 1 1.0000 -7.90784000 -17.97872000 -18.88681000
531 1 1 1.0000 -9.37716000 -17.41749000 -17.97872000
532 1 1 1.0000 -8.81593000 -16.50940000 -17.63186000
533 1 1 1.0000 -7.90784000 -17.97872000 -17.07063000
534 1 1 1.0000 -8.46907000 -18.88681000 -15.60131000
535 1 1 1.0000 -7.34661000 -17.07063000 -17.41749000
536 1 1 1.0000 -7.34661000 -17.07063000 -15.60131000
537 1 1 1.0000 -6.43852000 -15.60131000 -12.10144000
538 1 1 1.0000 -4.96920000 -16.16254000 -18.88681000
539 1 1 1.0000 -5.53043000 -17.07063000 -17.41749000
540 1 1 1.0000 -6.99975000 -16.50940000 -16.50940000
541 1 1 1.0000 -4.96920000 -16.16254000 -17.07063000
542 1 1 1.0000 -6.43852000 -15.60131000 -16.16254000
543 1 1 1.0000 -4.06111000 -17.63186000 -16.50940000
544 1 1 1.0000 -5.53043000 -17.07063000 -15.60131000
545 1 1 1.0000 -5.87729000 -16.50940000 -16.50940000
546 1 1 1.0000 -7.34661000 -15.94817000 -15.60131000
547 1 1 1.0000 -4.96920000 -17.97872000 -15.94817000
548 1 1 1.0000 -4.40797000 -17.07063000 -15.60131000
549 1 1 1.0000 -4.62234000 -15.60131000 -17.97872000
550 1 1 1.0000 -11.19334000 -15.60131000 -12.10144000
551 1 1 1.0000 -10.84648000 -16.16254000 -17.07063000
552 1 1 1.0000 -11.19334000 -15.60131000 -17.97872000
553 1 1 1.0000 -10.28525000 -17.07063000 -17.41749000
554 1 1 1.0000 -4.06111000 -16.50940000 -16.50940000
555 1 1 1.0000 -5.53043000 -15.94817000 -15.60131000
556 1 1 1.0000 -10.84648000 -17.97872000 -15.94817000
557 1 1 1.0000 -11.19334000 -15.60131000 -16.16254000
558 1 1 1.0000 -8.81593000 -17.63186000 -16.50940000