# LAMMPS molecular data file for site-site patchy model (5-site representation, centered)

38475 atoms
4 atom types

-145.77101053 145.77101053 xlo xhi
-145.77101053 145.77101053 ylo yhi
-145.77101053 145.77101053 zlo zhi

Atoms # molecular

1 1 3 105.94345263 105.94345263 105.94345263
2 1 4 109.53674477 102.36867533 102.17537419
3 1 4 109.64247313 109.50027874 109.62522281
4 1 4 102.33032749 102.22715044 109.55227807
5 1 4 102.26426513 109.67770602 102.42093546
6 2 1 120.12189474 105.94345263 105.94345263
7 2 2 114.30170812 106.16061630 103.50061332
8 2 2 122.22824543 99.99017465 105.83874207
9 2 2 119.98156199 108.02239238 111.90562610
10 2 2 123.97606341 109.60062719 102.52882903
11 3 3 105.94345263 120.12189474 105.94345263
12 3 4 108.09181478 126.05867859 105.77512558
13 3 4 109.54154474 116.69060773 109.83821824
14 3 4 106.16158445 117.63875918 100.14037993
15 3 4 99.97886656 120.09953344 108.02008678
16 4 1 143.06311579 105.94345263 105.94345263
17 4 2 139.29467386 109.67472083 102.51333909
18 4 2 146.92391755 109.50402961 109.45140035
19 4 2 146.48640157 102.29430892 102.08935604
20 4 2 139.54747018 102.30075117 109.71971505
21 5 3 124.50328421 113.03267368 117.41406316
22 5 4 124.29730397 110.88909687 111.47673652
23 5 4 128.47583554 109.47652374 120.79959569
24 5 4 118.72972392 112.74398409 119.95804761
25 5 4 126.51027341 119.02109004 117.42187281
26 6 3 131.59250526 101.56206316 113.03267368
27 6 4 129.53992209 107.53298792 113.18809759
28 6 4 127.81225095 98.13252150 109.31284599
29 6 4 131.53645208 99.16385593 118.87516090
30 6 4 137.48139593 101.41888728 110.75459026
31 7 3 131.59250526 101.56206316 135.97389474
32 7 4 127.67543802 98.09223537 132.43750155
33 7 4 137.37047592 101.46888738 133.42525377
34 7 4 131.82947703 99.17285081 141.81553031
35 7 4 129.49463009 107.51427907 136.21729332
36 8 1 143.06311579 120.12189474 105.94345263
37 8 2 140.84186293 114.20966825 105.91498996
38 8 2 143.15881917 122.36332749 100.03955421
39 8 2 148.92086141 120.15871035 108.30452384
40 8 2 139.33091964 123.75587286 109.51474250
41 9 3 57.35317895 101.56206316 113.03267368
42 9 4 60.99960170 105.20848591 116.67909644
43 9 4 60.99960170 97.91564041 109.38625093
44 9 4 53.70675619 105.20848591 109.38625093
45 9 4 53.70675619 97.91564041 116.67909644
46 10 1 83.00223158 105.94345263 105.94345263
47 10 2 85.25561876 111.84353297 105.92119955
48 10 2 83.23170291 103.58014209 100.09099134
49 10 2 77.01881477 105.98269615 107.96493234
50 10 2 86.50278988 102.36743932 109.79668730
51 11 1 64.44240000 113.03267368 117.41406316
52 11 2 66.39160679 107.02521257 117.39989303
53 11 2 58.54456160 113.33763025 115.17538038
54 11 2 68.26141702 116.49373303 113.76366946
55 11 2 64.57201460 115.27411888 123.31730975
56 12 3 71.53162105 101.56206316 113.03267368
57 12 4 65.67296348 101.38152426 115.38485021
58 12 4 73.63666404 107.51653633 113.08000898
59 12 4 71.48674802 99.39206637 107.10154414
60 12 4 75.33010868 97.95812568 116.56429140
61 13 1 83.00223158 120.12189474 105.94345263
62 13 2 86.69576726 116.51875966 102.30141907
63 13 2 79.44293715 116.43357844 109.63356682
64 13 2 79.27001869 123.67622967 102.29290653
65 13 2 86.60020321 123.85901118 109.54591811
66 14 1 94.47284211 101.56206316 113.03267368
67 14 2 100.45977335 101.34543890 115.03240497
68 14 2 94.30547674 103.79271715 107.12628996
69 14 2 91.12684500 105.35789614 116.81224408
70 14 2 91.99927333 95.75220045 113.15975573
71 15 3 94.47284211 101.56206316 135.97389474
72 15 4 94.15836942 99.25926216 130.10129648
73 15 4 98.19500716 97.86357985 139.48899137
74 15 4 88.68084200 101.71698777 138.48744380
75 15 4 96.85714985 107.40842284 135.81784729
76 16 3 105.94345263 105.94345263 120.12189474
77 16 4 105.67821557 108.28760669 125.98054545
78 16 4 109.42530761 109.75599097 116.48452833
79 16 4 100.10320465 105.52993838 117.75341284
80 16 4 108.56708270 100.20027449 120.26909233
81 17 1 113.03267368 117.41406316 124.50328421
82 17 2 110.54208799 111.61008400 124.50561248
83 17 2 109.62686716 121.16797477 128.27128449
84 17 2 112.98092481 119.72482250 118.62562227
85 17 2 118.98081477 117.15337136 126.61061760
86 18 3 105.94345263 105.94345263 143.06311579
87 18 4 109.39285778 102.12566462 139.40042616
88 18 4 109.77501098 109.34613491 146.75501374
89 18 4 102.07920162 102.48046828 146.66374074
90 18 4 102.52674015 109.82154272 139.43328252
91 19 3 101.56206316 113.03267368 131.59250526
92 19 4 107.45942062 113.37303708 129.35766219
93 19 4 98.09562549 109.32844868 127.83062769
94 19 4 99.03589853 118.81891210 131.75722669
95 19 4 101.65730799 110.61029688 137.42450448
96 20 1 120.12189474 105.94345263 143.06311579
97 20 2 114.16728095 105.97327813 140.95814998
98 20 2 122.28511825 100.01075977 143.17632074
99 20 2 120.30567381 108.36293759 148.89419748
100 20 2 123.72950593 109.42683503 139.22379496
101 21 3 101.56206316 113.03267368 57.35317895
102 21 4 105.34745870 116.66270334 60.87210807
103 21 4 97.77259727 109.66769925 61.12227596
104 21 4 105.06383521 109.11528805 53.84877042
105 21 4 98.06436145 116.68500409 53.56956134
106 22 3 105.94345263 143.06311579 105.94345263
107 22 4 102.26843238 139.39855349 109.54267562
108 22 4 109.30944803 146.93434005 109.62759358
109 22 4 102.33617368 146.47751469 102.04234823
110 22 4 109.85975643 139.44205492 102.56119310
111 23 3 117.41406316 124.50328421 113.03267368
112 23 4 111.56075860 124.58429066 110.66171188
113 23 4 121.21436209 127.97986474 109.37749761
114 23 4 119.53022938 118.55530566 113.21319482
115 23 4 117.35090257 126.89367579 118.87829043
116 24 1 113.03267368 131.59250526 101.56206316
117 24 2 112.97977956 129.60265911 107.55596936
118 24 2 109.22887976 127.93196827 98.09495805
119 24 2 118.91556754 131.26625569 99.28735039
120 24 2 111.00646787 137.56913798 101.30997483
121 25 3 120.12189474 143.06311579 105.94345263
122 25 4 120.13837029 140.71455249 111.80631673
123 25 4 125.98279475 142.90395188 103.59532266
124 25 4 118.06734584 149.03397869 106.07315041
125 25 4 116.29906807 139.59998010 102.29902073
126 26 3 131.59250526 124.50328421 113.03267368
127 26 4 128.03368245 120.73229676 116.63872838
128 26 4 127.86016735 128.11831232 109.44235029
129 26 4 135.30706767 120.98371894 109.33079807
130 26 4 135.16910358 128.17880882 116.71881800
131 27 1 113.03267368 131.59250526 124.50328421
132 27 2 116.84433481 128.22694923 120.75715697
133 27 2 109.54729208 127.67597682 128.02494821
134 27 2 109.23252129 135.18326441 120.96005295
135 27 2 116.50654655 135.28383058 128.27097872
136 28 1 143.06311579 105.94345263 120.12189474
137 28 2 140.87188312 111.86583672 120.23618701
138 28 2 143.32425214 103.68127564 126.01286747
139 28 2 148.84756572 105.88746287 117.58689951
140 28 2 139.20876218 102.33923530 116.65162496
141 29 3 124.50328421 113.03267368 131.59250526
142 29 4 120.88160463 116.70861515 127.95106491
143 29 4 128.39537990 109.64360479 127.95176362
144 29 4 120.84074990 109.13783008 134.95483068
145 29 4 127.89540242 116.64064472 135.51236184
146 30 3 105.94345263 120.12189474 143.06311579
147 30 4 111.78593497 120.00833182 140.66693141
148 30 4 103.87307998 126.08470369 143.28143333
149 30 4 106.01317719 117.70262704 148.89676630
150 30 4 102.10161838 116.69191640 139.40733212
151 31 3 131.59250526 124.50328421 135.97389474
152 31 4 131.60104389 126.63074151 130.02721095
153 31 4 127.68666171 128.03016741 139.46598245
154 31 4 137.43573180 124.85690247 138.34472862
155 31 4 129.64658365 118.49532545 136.05765693
156 32 3 143.06311579 105.94345263 143.06311579
157 32 4 146.75752549 102.24508514 146.60749332
158 32 4 142.77031659 103.62349512 137.19615210
159 32 4 145.46509770 111.78239900 142.90067967
160 32 4 137.25952339 106.12283127 145.54813807
161 33 3 124.50328421 113.03267368 57.35317895
162 33 4 124.59617871 115.50221658 63.16540103
163 33 4 118.59565991 113.12342370 55.12137774
164 33 4 126.58257891 107.07272122 57.56459623
165 33 4 128.23871931 116.43233324 53.56134079
166 34 3 138.68172632 113.03267368 131.59250526
167 34 4 138.69847621 110.90211720 125.64694848
168 34 4 141.15058613 118.84369924 131.75347151
169 34 4 142.12938618 109.17930966 135.21940808
170 34 4 132.74845673 113.20556864 133.75019298
171 35 3 120.12189474 120.12189474 143.06311579
172 35 4 116.71060996 123.98530622 139.41258368
173 35 4 116.25174692 116.66295049 146.66128996
174 35 4 123.93733575 123.53998951 146.75746753
175 35 4 123.58788632 116.29933273 139.42112199
176 36 3 131.59250526 101.56206316 52.97178947
177 36 4 133.98884133 95.72427321 52.71298523
178 36 4 131.84273152 103.67885294 58.91702163
179 36 4 125.58529354 101.46015588 51.02442720
180 36 4 134.95315467 105.38497060 49.23272383
181 37 3 138.68172632 113.03267368 57.35317895
182 37 4 142.24215928 116.86938529 60.88760371
183 37 4 135.13728666 109.39656521 61.10882270
184 37 4 142.41175943 109.38104597 53.79766698
185 37 4 134.93569989 116.48369826 53.61862239
186 38 3 131.59250526 101.56206316 75.91301053
187 38 4 135.29409073 98.03188860 72.20823942
188 38 4 128.08660665 97.80210653 79.58187921
189 38 4 127.80864852 105.12594246 72.32547811
190 38 4 135.18067515 105.28831505 79.53644536
191 39 3 135.97389474 131.59250526 101.56206316
192 39 4 132.47173045 127.82978906 97.89245697
193 39 4 133.72023801 137.48637953 101.29285146
194 39 4 141.95637732 131.53163818 99.53835496
195 39 4 135.74723317 129.52221428 107.52458924
196 40 3 143.06311579 143.06311579 105.94345263
197 40 4 146.54129703 146.94807005 102.37994566
198 40 4 137.14409973 142.92296161 103.74463431
199 40 4 143.04372234 145.13161149 111.91087635
200 40 4 145.52334406 137.24982001 105.73835422
201 41 3 57.35317895 124.50328421 113.03267368
202 41 4 63.24578198 124.27963279 115.29462110
203 41 4 54.85194877 118.70424011 113.09695160
204 41 4 57.45415159 126.68691453 107.10724039
205 41 4 53.86083346 128.34234941 116.63188164
206 42 1 135.97389474 131.59250526 124.50328421
207 42 2 129.99643630 131.83006216 126.52880990
208 42 2 139.34064042 127.84620421 128.31372367
209 42 2 138.44387543 137.40512501 124.54622616
210 42 2 136.11462680 129.28862968 118.62437711
211 43 1 52.97178947 131.59250526 101.56206316
212 43 2 53.10212862 133.82411939 95.65510898
213 43 2 58.77510023 131.85517827 104.04032558
214 43 2 50.97607007 125.60058753 101.50528779
215 43 2 49.03385896 135.09013586 105.04753027
216 44 3 131.59250526 138.68172632 113.03267368
217 44 4 125.76564193 138.41842894 110.61037411
218 44 4 131.34141773 141.09599949 118.86340581
219 44 4 135.22286528 142.34829531 109.39042781
220 44 4 134.04009611 132.86418152 113.26648701
221 45 1 143.06311579 120.12189474 120.12189474
222 45 2 139.22862544 116.65432869 123.74982335
223 45 2 146.65299446 116.30148451 116.59961801
224 45 2 146.76069315 123.69974784 123.78469222
225 45 2 139.61015011 123.83201791 116.35344537
226 46 1 71.53162105 124.50328421 113.03267368
227 46 2 67.92453957 120.82109616 116.68228346
228 46 2 67.85275227 128.36190241 109.64649778
229 46 2 74.95329515 120.89920586 109.13498684
230 46 2 75.39589721 127.93093242 116.66692666
231 47 1 52.97178947 131.59250526 124.50328421
232 47 2 56.64335452 135.08843613 128.26988398
233 47 2 49.46565957 127.68657910 128.01611644
234 47 2 56.59032668 128.21813458 120.57785337
235 47 2 49.18781712 135.37687124 121.14928306
236 48 3 83.00223158 105.94345263 120.12189474
237 48 4 86.44407787 109.73415034 123.81966450
238 48 4 79.37726207 109.44245780 116.31325258
239 48 4 79.33998725 102.25807630 123.71287844
240 48 4 86.84759913 102.33912608 116.64178343
241 49 3 64.44240000 113.03267368 131.59250526
242 49 4 69.26739900 113.80015311 135.59494915
243 49 4 64.21443118 117.92669840 127.60681217
244 49 4 59.03851313 112.71377144 134.84604260
245 49 4 65.24925669 107.69007179 128.32221713
246 50 3 143.06311579 120.12189474 143.06311579
247 50 4 144.99984512 126.13146784 142.91044718
248 50 4 146.89338535 116.76995733 146.80246705
249 50 4 143.19080985 117.71985065 137.22333193
250 50 4 137.16842284 119.86630313 145.31621700
251 51 3 57.35317895 101.56206316 52.97178947
252 51 4 53.61289623 98.09116015 49.24991987
253 51 4 55.37746356 107.56076578 52.93557588
254 51 4 63.28982310 101.28788760 50.83396818
255 51 4 57.13253290 99.30843910 58.86769397
256 52 1 83.00223158 105.94345263 143.06311579
257 52 2 80.99457467 99.95576937 143.14159674
258 52 2 79.12493072 109.50979053 146.54693100
259 52 2 83.04599669 108.07146429 137.11678521
260 52 2 88.84342423 106.23678633 145.44715021
261 53 3 64.44240000 113.03267368 57.35317895
262 53 4 66.86141808 107.20266921 57.13273315
263 53 4 58.50881753 112.93309210 55.19172584
264 53 4 67.92456844 116.89377357 53.76770720
265 53 4 64.47479595 115.10115985 63.32054960
266 54 3 57.35317895 101.56206316 75.91301053
267 54 4 63.25674908 101.78538565 73.67981044
268 54 4 54.83970592 107.35510053 75.80180235
269 54 4 57.42865691 99.41357695 81.85165566
270 54 4 53.88760387 97.69418950 72.31877366
271 55 3 71.53162105 101.56206316 52.97178947
272 55 4 77.45030793 101.38567155 50.77469426
273 55 4 67.86706493 97.80995346 49.45299751
274 55 4 69.35927685 107.48608601 52.69598237
275 55 4 71.44983450 99.56654161 58.96348376
276 56 3 71.53162105 101.56206316 75.91301053
277 56 4 75.47494019 98.07455603 79.40252692
278 56 4 73.48206659 107.56912903 75.90213711
279 56 4 65.71564821 101.24142188 78.35449481
280 56 4 71.45382922 99.36314569 69.99288326
281 57 1 75.91301053 131.59250526 101.56206316
282 57 2 72.31574727 135.22797418 97.85635680
283 57 2 79.36396303 127.69947337 97.98094234
284 57 2 72.22282190 128.20133684 105.40545767
285 57 2 79.74950991 135.24123666 105.00549582
286 58 3 57.35317895 138.68172632 113.03267368
287 58 4 60.99960170 142.32814907 116.67909644
288 58 4 60.99960170 135.03530356 109.38625093
289 58 4 53.70675619 142.32814907 109.38625093
290 58 4 53.70675619 135.03530356 116.67909644
291 59 1 83.00223158 143.06311579 105.94345263
292 59 2 83.14286188 145.33786299 100.05321114
293 59 2 79.04160305 146.52185985 109.44198200
294 59 2 88.79701170 143.32780346 108.44138385
295 59 2 81.02744968 137.06493686 105.83723354
296 60 3 64.44240000 52.97178947 117.41406316
297 60 4 66.86995154 47.14331557 117.57243705
298 60 4 58.50361285 52.72156783 115.27925799
299 60 4 67.90959729 56.59277589 113.57268357
300 60 4 64.48643832 55.42949861 123.23187402
301 61 3 94.47284211 124.50328421 113.03267368
302 61 4 100.35448798 124.17259680 110.75537611
303 61 4 94.37372925 122.27011342 118.93964595
304 61 4 90.61638913 121.05221717 109.41230033
305 61 4 92.54676207 130.51820946 113.02337235
306 62 3 75.91301053 131.59250526 124.50328421
307 62 4 76.19982969 133.79331727 130.41626634
308 62 4 69.89690611 131.49305427 122.58344214
309 62 4 78.27892333 125.73951947 124.31832398
310 62 4 79.27638298 135.34413004 120.69510437
311 63 3 90.09145263 131.59250526 101.56206316
312 63 4 95.93865974 131.80120910 99.18386871
313 63 4 86.55550459 127.65601939 98.11382485
314 63 4 87.55345604 137.37417233 101.42030160
315 63 4 90.31819016 129.53862024 107.53025748
316 64 3 71.53162105 138.68172632 113.03267368
317 64 4 65.59107749 138.94347100 115.16120090
318 64 4 74.00633199 144.49223617 112.97810982
319 64 4 71.56669387 136.32343469 107.17379779
320 64 4 74.96238085 134.96776340 116.81758622
321 65 3 87.38362105 113.03267368 131.59250526
322 65 4 87.30701341 115.39452602 125.73545987
323 65 4 85.04747527 107.16519142 131.52715467
324 65 4 83.85652868 116.66101250 135.37191961
325 65 4 93.32346685 112.90996480 133.73548691
326 66 3 83.00223158 120.12189474 120.12189474
327 66 4 85.51901901 114.32927941 120.09768018
328 66 4 82.82473913 122.31543569 126.04186704
329 66 4 77.13770796 119.87901736 117.79003478
330 66 4 86.52746021 123.96384648 116.55799694
331 67 1 94.47284211 124.50328421 135.97389474
332 67 2 97.99817068 128.23522541 132.29505385
333 67 2 88.49444699 124.58163542 133.93874120
334 67 2 94.69745758 126.59769473 141.92806885
335 67 2 96.70129317 118.59858130 135.73371505
336 68 1 90.09145263 131.59250526 124.50328421
337 68 2 93.47790589 127.72045229 128.16775369
338 68 2 92.63231051 137.37315661 124.63484294
339 68 2 84.15331710 131.85383291 126.63857123
340 68 2 90.10227703 129.42257924 118.57196899
341 69 3 87.38362105 113.03267368 57.35317895
342 69 4 87.55639917 115.07129196 63.32840942
343 69 4 81.40880383 113.01680275 55.30610708
344 69 4 89.72541230 107.17446471 57.05890459
345 69 4 90.84386891 116.86813532 53.71929469
346 70 3 83.00223158 120.12189474 143.06311579
347 70 4 79.56390659 123.67718712 146.99083956
348 70 4 82.86927864 122.64714232 137.27565997
349 70 4 80.60643375 114.28143430 142.86722983
350 70 4 88.96930734 119.88181521 145.11873380
351 71 1 94.47284211 101.56206316 52.97178947
352 71 2 90.83710287 98.15251929 56.85065622
353 71 2 97.83567614 97.68651600 49.28930691
354 71 2 98.39222373 105.15736219 56.37788239
355 71 2 90.82636568 105.25185514 49.36931239
356 72 3 94.47284211 101.56206316 75.91301053
357 72 4 92.18668990 95.67456247 75.91937256
358 72 4 94.22508364 103.91035082 70.05525008
359 72 4 100.46670805 101.49517002 77.90255646
360 72 4 91.01288684 105.16816932 79.77486301
361 73 3 94.47284211 138.68172632 113.03267368
362 73 4 100.29293458 138.49111420 115.47795241
363 73 4 94.76021397 140.75100022 107.07241192
364 73 4 90.88106847 142.59536791 116.44907076
365 73 4 91.95715141 132.88942293 113.13125965
366 74 3 101.56206316 135.97389474 131.59250526
367 74 4 97.81297879 132.26392477 128.11835988
368 74 4 101.51569371 133.98993622 137.58841682
369 74 4 99.46447548 141.92530873 131.32794090
370 74 4 107.45510466 135.71640922 129.33530345
371 75 3 113.03267368 117.41406316 64.44240000
372 75 4 118.94179945 117.77139888 62.24155008
373 75 4 113.08212904 114.80216000 70.19259239
374 75 4 109.54690623 113.86725171 60.54897602
375 75 4 110.55986002 123.21544204 64.78648151
376 76 3 105.94345263 105.94345263 83.00223158
377 76 4 111.75912176 105.93694056 85.46538949
378 76 4 103.70659026 100.03852870 82.86988086
379 76 4 106.14855496 108.24921345 77.12595753
380 76 4 102.15954355 109.54912781 86.54769843
381 77 3 101.56206316 113.03267368 71.53162105
382 77 4 101.27638435 115.16233841 65.59258802
383 77 4 107.56414894 113.07502761 73.49691238
384 77 4 99.31225772 107.13576535 71.76409715
385 77 4 98.09546163 116.75756337 75.27288665
386 78 3 120.12189474 105.94345263 83.00223158
387 78 4 116.41823173 102.10913205 86.38897962
388 78 4 116.53364676 109.78271663 79.49884398
389 78 4 123.82687950 102.49543159 79.22421159
390 78 4 123.70882096 109.38653025 86.89689113
391 79 3 101.56206316 113.03267368 94.47284211
392 79 4 101.52740859 115.00407068 100.47297456
393 79 4 103.70277761 107.09613831 94.21969014
394 79 4 105.32484011 116.77529626 91.04888497
395 79 4 95.69322633 113.25518949 92.14981875
396 80 1 113.03267368 57.35317895 101.56206316
397 80 2 116.77158563 61.00891713 105.10399943
398 80 2 109.25528353 60.99015285 98.04170222
399 80 2 109.52085654 53.67707380 105.30940729
400 80 2 116.58296903 53.73657201 97.79314369
401 81 3 105.94345263 143.06311579 120.12189474
402 81 4 105.66380124 140.73525402 114.25742111
403 81 4 100.17422564 142.99563313 122.69107014
404 81 4 108.09355059 148.99857563 119.93060575
405 81 4 109.84223305 139.52300038 123.60848194
406 82 3 113.03267368 57.35317895 124.50328421
407 82 4 115.46572913 63.18149404 124.51670780
408 82 4 113.19467721 55.01771479 118.63740338
409 82 4 107.05153315 57.56403999 126.52087964
410 82 4 116.41875525 53.64946697 128.33814602
411 83 3 124.50328421 135.97389474 131.59250526
412 83 4 126.70027256 130.05530264 131.77335215
413 83 4 128.09674666 139.43603826 127.72084080
414 83 4 124.66429866 138.45757799 137.39720919
415 83 4 118.55181896 135.94666006 129.47861891
416 84 3 105.94345263 143.06311579 143.06311579
417 84 4 102.36332080 146.69584797 146.78804660
418 84 4 103.64636414 137.18000510 143.02324580
419 84 4 111.86709014 142.99545987 145.25289611
420 84 4 105.89703545 145.38115021 137.18827465
421 85 3 120.12189474 143.06311579 120.12189474
422 85 4 123.86363609 139.36573709 116.62647507
423 85 4 116.39471851 146.47197920 116.33019276
424 85 4 123.67080522 146.93919708 123.62481130
425 85 4 116.55841913 139.47554979 123.90609981
426 86 1 101.56206316 52.97178947 131.59250526
427 86 2 95.58466616 52.89169686 133.63052067
428 86 2 103.79193247 58.87563684 131.84042778
429 86 2 101.78325001 50.88626162 125.63508583
430 86 2 105.08840399 49.23356259 135.26398678
431 87 3 113.03267368 131.59250526 138.68172632
432 87 4 110.73568779 125.71416702 138.92295511
433 87 4 119.04631889 131.58378346 140.61180178
434 87 4 109.61891103 135.34285624 142.44607063
435 87 4 112.72977702 133.72921434 132.74607774
436 88 3 120.12189474 143.06311579 143.06311579
437 88 4 126.11446563 143.18950514 145.05367259
438 88 4 116.59079439 146.75213349 146.77952203
439 88 4 117.94866245 137.13781945 143.30211629
440 88 4 119.83365648 145.17300508 137.11715224
441 89 1 101.56206316 52.97178947 57.35317895
442 89 2 97.74768027 49.62372513 53.59417035
443 89 2 107.47496450 52.67665967 55.15324861
444 89 2 101.37064643 50.59502209 63.20155768
445 89 2 99.65496143 58.99175100 57.46373915
446 90 1 131.59250526 124.50328421 52.97178947
447 90 2 135.17408506 128.15947200 56.67229948
448 90 2 127.82268117 128.13559347 49.43852568
449 90 2 128.07217096 120.68138137 56.56198477
450 90 2 135.30108386 121.03669001 49.21434797
451 91 1 113.03267368 131.59250526 64.44240000
452 91 2 116.67909644 135.23892802 68.08882275
453 91 2 116.67909644 127.94608251 60.79597725
454 91 2 109.38625093 135.23892802 60.79597725
455 91 2 109.38625093 127.94608251 68.08882275
456 92 3 124.50328421 113.03267368 71.53162105
457 92 4 120.58646318 116.57969301 68.07237778
458 92 4 128.11747476 109.54266664 67.70452365
459 92 4 121.13778674 109.23438800 75.29136170
460 92 4 128.17141215 116.77394709 75.05822108
461 93 3 105.94345263 120.12189474 83.00223158
462 93 4 109.58987538 123.76831749 86.64865433
463 93 4 109.58987538 116.47547198 79.35580883
464 93 4 102.29702988 123.76831749 79.35580883
465 93 4 102.29702988 116.47547198 86.64865433
466 94 3 52.97178947 117.41406316 64.44240000
467 94 4 46.96799865 117.52274927 66.39991882
468 94 4 53.24720436 114.95595664 58.63111306
469 94 4 56.40916709 113.87859251 68.38880079
470 94 4 55.26278779 123.29895422 64.34976732
471 95 1 131.59250526 124.50328421 75.91301053
472 95 2 133.74624934 130.44038947 75.87607301
473 95 2 131.32830753 122.32274150 69.99147104
474 95 2 125.81596280 124.37510711 78.46336826
475 95 2 135.47950139 120.87489876 79.32112979
476 96 3 113.03267368 131.59250526 87.38362105
477 96 4 115.45753187 125.76090108 87.34297858
478 96 4 107.16494207 131.44893598 85.05160263
479 96 4 116.61807055 135.38818441 83.83017970
480 96 4 112.89015024 133.77199958 93.30972331
481 97 3 143.06311579 105.94345263 83.00223158
482 97 4 145.53255370 100.13136566 82.89870203
483 97 4 146.43049481 109.72906762 79.23141276
484 97 4 143.20362991 108.18572599 88.90491426
485 97 4 137.08578474 105.72765125 80.97389726
486 98 3 124.50328421 113.03267368 94.47284211
487 98 4 124.89460137 110.81053812 100.37184043
488 98 4 122.16333355 118.89796006 94.58349231
489 98 4 120.69960392 109.31243413 91.06975075
490 98 4 130.25559800 113.10976243 91.86628493
491 99 3 138.68172632 113.03267368 71.53162105
492 99 4 138.66496511 115.06998413 65.55347065
493 99 4 144.58198654 113.15599056 73.78126975
494 99 4 136.46951915 107.12092132 71.74730707
495 99 4 135.01043446 116.78379873 75.04443674
496 100 3 120.12189474 120.12189474 83.00223158
497 100 4 114.28593384 120.14539101 85.41681323
498 100 4 122.31537699 126.03871930 82.73951716
499 100 4 119.98329151 117.66774017 77.18440461
500 100 4 123.90297661 116.63572846 86.66819131
501 101 1 131.59250526 101.56206316 90.09145263
502 101 2 131.94587596 99.20001541 95.93825142
503 101 2 127.72601436 97.98549847 86.60610765
504 101 2 137.34531147 101.60041800 87.48512453
505 101 2 129.35281926 107.46232075 90.33632693
506 102 3 138.68172632 113.03267368 94.47284211
507 102 4 138.42812296 115.37606202 100.33231422
508 102 4 141.14759968 107.22040947 94.63486129
509 102 4 142.29754432 116.75396364 90.87186194
510 102 4 132.85363830 112.78025961 92.05233098
511 103 3 105.94345263 83.00223158 105.94345263
512 103 4 105.80052841 85.34575399 111.80661496
513 103 4 100.12509269 83.11392715 103.48918924
514 103 4 108.04562958 77.04879063 106.10651740
515 103 4 109.80255985 86.50045454 102.37148892
516 104 3 117.41406316 64.44240000 113.03267368
517 104 4 117.36480014 66.85886483 107.19765287
518 104 4 115.16410032 58.54276504 112.88716924
519 104 4 113.79515343 67.98320211 116.80830738
520 104 4 123.33219874 64.38476802 115.23756525
521 105 3 113.03267368 71.53162105 101.56206316
522 105 4 115.17951128 65.59237279 101.63699829
523 105 4 113.10879411 73.87187769 107.42777721
524 105 4 107.12014694 71.60517446 99.34264560
525 105 4 116.72224241 75.05705927 97.84083153
526 106 3 120.12189474 83.00223158 105.94345263
527 106 4 123.78417246 86.85898071 109.34968291
528 106 4 116.62638720 79.44855892 109.82185878
529 106 4 123.74936118 79.27043047 102.36513679
530 106 4 116.32765811 86.43095623 102.23713205
531 107 1 52.97178947 57.35317895 101.56206316
532 107 2 49.39427870 53.70793754 97.84684738
533 107 2 52.65925751 55.24723201 107.50819701
534 107 2 50.87186835 63.30486757 101.32346260
535 107 2 58.96175333 57.15267867 99.56974564
536 108 3 131.59250526 64.44240000 113.03267368
537 108 4 135.80342816 69.05491851 113.97182079
538 108 4 133.24880928 61.08304336 107.94734420
539 108 4 125.87517090 66.96540501 112.11849126
540 108 4 131.44261271 60.66623312 118.09303848
541 109 3 113.03267368 71.53162105 124.50328421
542 109 4 116.79419285 68.11720657 120.75069254
543 109 4 109.47867027 67.66041219 128.00642546
544 109 4 109.29682978 75.19631591 120.96737147
545 109 4 116.56100184 75.15254955 128.28864737
546 110 3 143.06311579 143.06311579 120.12189474
547 110 4 143.25088050 145.08540189 126.10222080
548 110 4 146.53763610 146.89199092 116.49468916
549 110 4 137.08638028 143.08012125 118.08043937
550 110 4 145.37756628 137.19494910 119.81022962
551 111 3 124.50328421 52.97178947 131.59250526
552 111 4 128.14970696 56.61821223 135.23892802
553 111 4 128.14970696 49.32536672 127.94608251
554 111 4 120.85686146 56.61821223 127.94608251
555 111 4 120.85686146 49.32536672 135.23892802
556 112 3 52.97178947 57.35317895 124.50328421
557 112 4 50.89289594 51.39250671 124.30890124
558 112 4 49.32614484 60.72817846 128.40300857
559 112 4 52.73664805 59.85483881 118.70883833
560 112 4 58.93146906 57.43719181 126.59238870
561 113 3 131.59250526 64.44240000 135.97389474
562 113 4 133.77951433 58.52914337 136.34750437
563 113 4 125.81597942 64.39322348 133.42075399
564 113 4 135.45994560 67.89333395 132.36513361
565 113 4 131.31458170 66.95389920 141.76218697
566 114 1 64.44240000 135.97389474 131.59250526
567 114 2 58.61431376 135.69943651 134.01062027
568 114 2 64.38497201 133.70640377 125.69806861
569 114 2 68.35882790 132.51528161 135.14057297
570 114 2 66.41148633 141.97445707 131.52075920
571 115 3 143.06311579 143.06311579 143.06311579
572 115 4 147.08104637 139.67368304 146.56414083
573 115 4 143.02619281 140.83721877 137.15268298
574 115 4 144.88812345 149.10935750 143.02432046
575 115 4 137.25710052 142.63220385 145.51131889
576 116 3 124.50328421 52.97178947 57.35317895
577 116 4 124.26920659 50.73219241 51.45244937
578 116 4 128.14634359 49.21404757 60.88824486
579 116 4 118.67275749 53.13628012 59.77538824
580 116 4 126.92482917 58.80463779 57.29663332
581 117 3 138.68172632 52.97178947 131.59250526
582 117 4 144.53855585 52.96057335 129.22890233
583 117 4 134.93349479 49.42919697 127.94696064
584 117 4 136.48488382 58.89120091 131.74628494
585 117 4 138.76997080 50.60618667 137.44787315
586 118 3 57.35317895 124.50328421 52.97178947
587 118 4 51.38217210 124.47807413 50.91372276
588 118 4 60.79794325 128.40161255 49.39047240
589 118 4 59.72880220 118.66240222 52.61163856
590 118 4 57.50379824 126.47104795 58.97132418
591 119 3 135.97389474 131.59250526 64.44240000
592 119 4 136.17781764 133.83172803 58.54040929
593 119 4 133.73506992 125.68719918 64.37743136
594 119 4 132.19232169 135.23921097 67.94817242
595 119 4 141.79036969 131.61188288 66.90358693
596 120 1 52.97178947 131.59250526 138.68172632
597 120 2 52.60662105 133.67252657 132.72946957
598 120 2 58.95682140 131.93775027 140.66903496
599 120 2 51.01044710 125.59453226 138.93989859
600 120 2 49.31326834 135.16521195 142.38850214
601 121 3 131.59250526 138.68172632 52.97178947
602 121 4 133.69126600 132.72490665 52.94535191
603 121 4 131.54031906 140.86917526 58.89644472
604 121 4 125.73787030 138.86158271 50.60956653
605 121 4 135.40056569 142.27124064 49.43579474
606 122 3 64.44240000 135.97389474 57.35317895
607 122 4 66.48660397 141.94960113 57.31629158
608 122 4 64.79854691 133.59094804 51.51503525
609 122 4 58.44643767 135.81216067 59.33092392
610 122 4 68.03801145 132.54286912 61.25046504
611 123 3 143.06311579 143.06311579 68.82378947
612 123 4 140.75030531 148.93653392 68.61627209
613 123 4 149.03164737 143.07658133 66.75844548
614 123 4 139.57227820 139.29484867 65.14909055
615 123 4 142.89823227 140.94449923 74.77134978
616 124 3 75.91301053 117.41406316 64.44240000
617 124 4 81.73782723 117.29588304 62.00380612
618 124 4 76.04223977 115.09579610 70.31591121
619 124 4 72.06562164 113.89788451 60.87542890
620 124 4 73.80635346 123.36668897 64.57445377
621 125 1 57.35317895 124.50328421 75.91301053
622 125 2 53.64118708 127.90125433 79.72930606
623 125 2 55.31576561 118.52689341 75.76845592
624 125 2 63.28793286 124.65275328 78.06836460
625 125 2 57.16783024 126.93223582 70.08591553
626 126 3 71.53162105 124.50328421 52.97178947
627 126 4 75.13724180 128.31355441 49.45461210
628 126 4 73.84353448 118.62969396 52.75920878
629 126 4 65.62908550 124.52506075 50.72483676
630 126 4 71.51662243 126.54482772 58.94850026
631 127 1 52.97178947 131.59250526 64.44240000
632 127 2 47.09114685 131.34729338 66.73305728