# LAMMPS molecular data file for site-site patchy model (5-site, reduced LJ units, centered)

38475 atoms
4 atom types

-11.54020500 11.54020500 xlo xhi
-11.54020500 11.54020500 ylo yhi
-11.54020500 11.54020500 zlo zhi

Masses

1 1
2 0.02
3 1
4 0.02

Atoms # molecular

1 1 3 8.38719000 8.38719000 8.38719000
2 1 4 8.67165896 8.10418680 8.08888379
3 1 4 8.68002912 8.66877207 8.67866347
4 1 4 8.10115093 8.09298274 8.67288868
5 1 4 8.09592099 8.68281839 8.10832406
6 2 1 9.50965000 8.38719000 8.38719000
7 2 2 9.04888523 8.40438212 8.19379855
8 2 2 9.67640276 7.91588883 8.37890041
9 2 2 9.49854032 8.55177273 8.85919540
10 2 2 9.81477169 8.67671632 8.11686563
11 3 3 8.38719000 9.50965000 8.38719000
12 3 4 8.55726867 9.97964539 8.37386411
13 3 4 8.67203896 9.23800645 8.69552561
14 3 4 8.40445877 9.31306844 7.92778008
15 3 4 7.91499360 9.50787973 8.55159020
16 4 1 11.32583000 8.38719000 8.38719000
17 4 2 11.02749501 8.68258207 8.11563934
18 4 2 11.63147681 8.66906901 8.66490253
19 4 2 11.59684012 8.09829946 8.08207402
20 4 2 11.04750806 8.09880947 8.68614411
21 5 3 9.85651000 8.94842000 9.29528000
22 5 4 9.84020323 8.77872017 8.82524164
23 5 4 10.17100365 8.66689146 9.56330133
24 5 4 9.39943648 8.92556541 9.49667877
25 5 4 10.01539664 9.42250296 9.29589826
26 6 3 10.41774000 8.04033000 8.94842000
27 6 4 10.25524383 8.51302821 8.96072439
28 6 4 10.11846987 7.76882462 8.65393364
29 6 4 10.41330246 7.85047193 9.41095024
30 6 4 10.88394384 8.02899524 8.76807173
31 7 3 10.41774000 8.04033000 10.76460000
32 7 4 10.10763884 7.76563530 10.48463554
33 7 4 10.87516268 8.03295358 10.56283259
34 7 4 10.43650026 7.85118402 11.22706282
35 7 4 10.25165822 8.51154709 10.78386905
36 8 1 11.32583000 9.50965000 8.38719000
37 8 2 11.14998082 9.04159874 8.38493671
38 8 2 11.33340652 9.68709676 7.91979804
39 8 2 11.78956820 9.51256457 8.57410814
40 8 2 11.03036447 9.79733993 8.66991711
41 9 3 4.54046000 8.04033000 8.94842000
42 9 4 4.82913513 8.32900513 9.23709513
43 9 4 4.82913513 7.75165487 8.65974487
44 9 4 4.25178487 8.32900513 8.65974487
45 9 4 4.25178487 7.75165487 9.23709513
46 10 1 6.57101000 8.38719000 8.38719000
47 10 2 6.74940315 8.85427969 8.38542830
48 10 2 6.58917648 8.20009458 7.92387015
49 10 2 6.09732284 8.39029678 8.54722381
50 10 2 6.84813753 8.10408895 8.69223774
51 11 1 5.10169000 8.94842000 9.29528000
52 11 2 5.25600220 8.47282933 9.29415820
53 11 2 4.63477779 8.97256240 9.11805095
54 11 2 5.40402885 9.22242053 9.00629050
55 11 2 5.11195116 9.12586774 9.76262036
56 12 3 5.66292000 8.04033000 8.94842000
57 12 4 5.19910961 8.02603734 9.13463398
58 12 4 5.82956924 8.51172579 8.95216738
59 12 4 5.65936755 7.86853859 8.47887224
60 12 4 5.96363360 7.75501828 9.22800640
61 13 1 6.57101000 9.50965000 8.38719000
62 13 2 6.86341491 9.22440181 8.09886234
63 13 2 6.28923252 9.21765829 8.67932404
64 13 2 6.27554315 9.79103485 8.09818843
65 13 2 6.85584942 9.80550505 8.67238518
66 14 1 7.47910000 8.04033000 8.94842000
67 14 2 7.95306539 8.02318058 9.10673206
68 14 2 7.46585024 8.21692344 8.48083129
69 14 2 7.21420856 8.34083344 9.24763599
70 14 2 7.28327581 7.58038254 8.95848066
71 15 3 7.47910000 8.04033000 10.76460000
72 15 4 7.45420425 7.85802492 10.29968597
73 15 4 7.77377140 7.74753340 11.04287848
74 15 4 7.02056666 8.05259487 10.96358930
75 15 4 7.66785770 8.50316681 10.75224624
76 16 3 8.38719000 8.38719000 9.50965000
77 16 4 8.36619207 8.57276886 9.97345985
78 16 4 8.66283685 8.68901595 9.22169183
79 16 4 7.92483703 8.35445345 9.32214518
80 16 4 8.59489405 7.93252173 9.52130314
81 17 1 8.94842000 9.29528000 9.85651000
82 17 2 8.75124863 8.83579832 9.85669432
83 17 2 8.67879365 9.59246467 10.15481002
84 17 2 8.94432321 9.47821511 9.39119510
85 17 2 9.41931450 9.27464190 10.02334056
86 18 3 8.38719000 8.38719000 11.32583000
87 18 4 8.66026791 8.08494845 11.03586707
88 18 4 8.69052170 8.65656901 11.61810525
89 18 4 8.08127013 8.11303707 11.61087947
90 18 4 8.11670026 8.69420547 11.03846820
91 19 3 8.04033000 8.94842000 10.41774000
92 19 4 8.50720413 8.97536544 10.24081492
93 19 4 7.76590368 8.65516885 10.11992469
94 19 4 7.84034197 9.40649721 10.43078045
95 19 4 8.04787022 8.75664850 10.87943994
96 20 1 9.50965000 8.38719000 11.32583000
97 20 2 9.03824308 8.38955119 11.15918687
98 20 2 9.68090520 7.91751848 11.33479206
99 20 2 9.52419918 8.57873256 11.78745730
100 20 2 9.79525255 8.66295777 11.02188377
101 21 3 8.04033000 8.94842000 4.54046000
102 21 4 8.34000715 9.23579735 4.81904189
103 21 4 7.74033062 8.68202619 4.83884685
104 21 4 8.31755362 8.63829364 4.26302766
105 21 4 7.76342861 9.23756282 4.24092361
106 22 3 8.38719000 11.32583000 8.38719000
107 22 4 8.09625090 11.03571882 8.67212849
108 22 4 8.65366464 11.63230192 8.67885116
109 22 4 8.10161375 11.59613658 8.07835257
110 22 4 8.69723072 11.03916268 8.11942779
111 23 3 9.29528000 9.85651000 8.94842000
112 23 4 8.83189339 9.86292301 8.76071886
113 23 4 9.59613700 10.13173929 8.65905189
114 23 4 9.46280983 9.38562836 8.96271126
115 23 4 9.29027979 10.04574933 9.41119799
116 24 1 8.94842000 10.41774000 8.04033000
117 24 2 8.94423255 10.26021051 8.51484757
118 24 2 8.64728631 10.12794749 7.76585085
119 24 2 9.41414910 10.39191191 7.86024857
120 24 2 8.78801204 10.89089009 8.02037301
121 25 3 9.50965000 11.32583000 8.38719000
122 25 4 9.51095431 11.13990207 8.85133341
123 25 4 9.97363792 11.31322952 8.20129638
124 25 4 9.34699821 11.79852331 8.39745774
125 25 4 9.20700956 11.05166509 8.09867247
126 26 3 10.41774000 9.85651000 8.94842000
127 26 4 10.13599986 9.55797349 9.23389933
128 26 4 10.12226325 10.14269973 8.66418606
129 26 4 10.71180952 9.57787775 8.65535485
130 26 4 10.70088737 10.14748903 9.24023976
131 27 1 8.94842000 10.41774000 9.85651000
132 27 2 9.25017651 10.15130015 9.55994159
133 27 2 8.67249396 10.10768150 10.13530840
134 27 2 8.64757460 10.70200843 9.57600419
135 27 2 9.22343494 10.70996992 10.15478582
136 28 1 11.32583000 8.38719000 9.50965000
137 28 2 11.15235741 8.85604541 9.51869814
138 28 2 11.34650329 8.20810099 9.97601867
139 28 2 11.78376562 8.38275748 9.30896288
140 28 2 11.02069367 8.10185613 9.23492031
141 29 3 9.85651000 8.94842000 10.41774000
142 29 4 9.56979370 9.23943203 10.12945931
143 29 4 10.16463424 8.68011871 10.12951462
144 29 4 9.56655937 8.64007821 10.68392410
145 29 4 10.12505269 9.23405104 10.72806198
146 30 3 8.38719000 9.50965000 11.32583000
147 30 4 8.84971985 9.50065960 11.13613207
148 30 4 8.22328550 9.98170571 11.34311347
149 30 4 8.39270986 9.31812464 11.78766067
150 30 4 8.08304479 9.23811005 11.03641379
151 31 3 10.41774000 9.85651000 10.76460000
152 31 4 10.41841597 10.02493370 10.29382087
153 31 4 10.10852739 10.13572159 11.04105694
154 31 4 10.88032877 9.88450478 10.95229102
155 31 4 10.26368787 9.38087993 10.77123117
156 32 3 11.32583000 8.38719000 11.32583000
157 32 4 11.61830410 8.09440257 11.60642655
158 32 4 11.30265006 8.20352670 10.86136204
159 32 4 11.51598690 8.84943992 11.31297047
160 32 4 10.86637893 8.40139081 11.52256093
161 33 3 9.85651000 8.94842000 4.54046000
162 33 4 9.86386415 9.14392548 5.00059425
163 33 4 9.38882308 8.95560438 4.36377574
164 33 4 10.02112083 8.47659043 4.55719720
165 33 4 10.15223195 9.21755971 4.24027281
166 34 3 10.97897000 8.94842000 10.41774000
167 34 4 10.98029603 8.77975094 9.94705009
168 34 4 11.17442140 9.40845952 10.43048316
169 34 4 11.25190974 8.64336201 10.70486981
170 34 4 10.50925282 8.96210752 10.58855694
171 35 3 9.50965000 9.50965000 11.32583000
172 35 4 9.23958996 9.81550341 11.03682954
173 35 4 9.20326330 9.23581691 11.61068546
174 35 4 9.81170575 9.78024917 11.61829951
175 35 4 9.78404100 9.20703051 11.03750549
176 36 3 10.41774000 8.04033000 4.19360000
177 36 4 10.60744994 7.57817163 4.17311133
178 36 4 10.43754958 8.20790919 4.66426421
179 36 4 9.94216907 8.03226234 4.03943382
180 36 4 10.68379141 8.34297684 3.89759064
181 37 3 10.97897000 8.94842000 4.54046000
182 37 4 11.26083761 9.25215967 4.82026863
183 37 4 10.69836853 8.66056141 4.83778180
184 37 4 11.27426429 8.65933281 4.25898197
185 37 4 10.68240957 9.22162611 4.24480761
186 38 3 10.41774000 8.04033000 6.00978000
187 38 4 10.71078218 7.76085785 5.71648562
188 38 4 10.14018969 7.74266677 6.30023210
189 38 4 10.11818467 8.32247044 5.72576702
190 38 4 10.70180345 8.33532494 6.29663526
191 39 3 10.76460000 10.41774000 8.04033000
192 39 4 10.48734533 10.11985830 7.74981951
193 39 4 10.58618551 10.88433838 8.01901741
194 39 4 11.23821320 10.41292136 7.88011977
195 39 4 10.74665596 10.25384196 8.51236331
196 40 3 11.32583000 11.32583000 8.38719000
197 40 4 11.60118602 11.63338888 8.10507903
198 40 4 10.85724123 11.31473446 8.21311688
199 40 4 11.32429468 11.48958591 8.85961104
200 40 4 11.52059807 10.86561075 8.37095304
201 41 3 4.54046000 9.85651000 8.94842000
202 41 4 5.00695774 9.83880426 9.12749084
203 41 4 4.34244594 9.39741901 8.95350867
204 41 4 4.54845367 10.02938073 8.47932320
205 41 4 4.26398265 10.16043600 9.23335730
206 42 1 10.76460000 10.41774000 9.85651000
207 42 2 10.29138454 10.43654659 10.01686412
208 42 2 11.03113403 10.12115783 10.15816979
209 42 2 10.96014014 10.87790573 9.85990957
210 42 2 10.77574129 10.23534985 9.39109652
211 43 1 4.19360000 10.41774000 8.04033000
212 43 2 4.20391852 10.59440945 7.57269613
213 43 2 4.65302877 10.43853495 8.23652578
214 43 2 4.03560555 9.94337985 8.03583528
215 43 2 3.88184717 10.69463576 8.31626281
216 44 3 10.41774000 10.97897000 8.94842000
217 44 4 9.95644665 10.95812562 8.75665462
218 44 4 10.39786224 11.17009996 9.41001963
219 44 4 10.70514350 11.26924005 8.66007553
220 44 4 10.61150761 10.51841437 8.96693022
221 45 1 11.32583000 9.50965000 9.50965000
222 45 2 11.02226618 9.23513435 9.79686101
223 45 2 11.61002873 9.20720086 9.23080309
224 45 2 11.61855487 9.79289670 9.79962147
225 45 2 11.05247022 9.80336808 9.21131443
226 46 1 5.66292000 9.85651000 8.94842000
227 46 2 5.37735938 9.56500345 9.23734744
228 46 2 5.37167622 10.16198394 8.68034774
229 46 2 5.93380253 9.57118713 8.63985312
230 46 2 5.96884186 10.12786548 9.23613169
231 47 1 4.19360000 10.41774000 9.85651000
232 47 2 4.48426557 10.69450119 10.15469915
233 47 2 3.91603138 10.10852085 10.13460922
234 47 2 4.48006753 10.15060232 9.54574673
235 47 2 3.89403552 10.71733564 9.59098491
236 48 3 6.57101000 8.38719000 9.50965000
237 48 4 6.84348950 8.68728690 9.80239011
238 48 4 6.28403325 8.66419458 9.20813250
239 48 4 6.28108232 8.09543104 9.79393621
240 48 4 6.87543493 8.10184748 9.23414119
241 49 3 5.10169000 8.94842000 10.41774000
242 49 4 5.48366909 9.00917879 10.73460014
243 49 4 5.08364247 9.33586362 10.10220596
244 49 4 4.67388229 8.92317357 10.67531171
245 49 4 5.16556615 8.52546402 10.15884219
246 50 3 11.32583000 9.50965000 11.32583000
247 50 4 11.47915441 9.98540787 11.31374373
248 50 4 11.62905967 9.24428829 11.62186197
249 50 4 11.33593911 9.31948818 10.86351378
250 50 4 10.85916681 9.48941566 11.50420051
251 51 3 4.54046000 8.04033000 4.19360000
252 51 4 4.24435428 7.76555018 3.89895199
253 51 4 4.38404920 8.51522729 4.19073309
254 51 4 5.01044433 8.01862443 4.02435581
255 51 4 4.52299219 7.86191810 4.66035911
256 52 1 6.57101000 8.38719000 11.32583000
257 52 2 6.41207049 7.91316508 11.33204307
258 52 2 6.26405702 8.66952508 11.60163204
259 52 2 6.57447474 8.55565759 10.85507883
260 52 2 7.03343775 8.41041225 11.51456606
261 53 3 5.10169000 8.94842000 4.54046000
262 53 4 5.29319560 8.48687798 4.52300804
263 53 4 4.63194805 8.94053646 4.36934496
264 53 4 5.37736167 9.25409041 4.25661015
265 53 4 5.10425468 9.11217515 5.01287684
266 54 3 4.54046000 8.04033000 6.00978000
267 54 4 5.00782597 8.05800970 5.83298499
268 54 4 4.34147672 8.49894546 6.00097602
269 54 4 4.54643534 7.87024151 6.47992274
270 54 4 4.26610197 7.73412334 5.72523625
271 55 3 5.66292000 8.04033000 4.19360000
272 55 4 6.13148271 8.02636566 4.01966330
273 55 4 5.37280931 7.74328798 3.91502897
274 55 4 5.49094275 8.50931514 4.17176527
275 55 4 5.65644523 7.88235121 4.66794246
276 56 3 5.66292000 8.04033000 6.00978000
277 56 4 5.97509943 7.76423569 6.28603338
278 56 4 5.81733027 8.51588938 6.00891919
279 56 4 5.20248882 8.01494590 6.20306417
280 56 4 5.65676148 7.86624903 5.54110326
281 57 1 6.00978000 10.41774000 8.04033000
282 57 2 5.72499666 10.70554796 7.74696158
283 57 2 6.28298041 10.10954164 7.75682460
284 57 2 5.71764007 10.14927250 8.34459873
285 57 2 6.31350287 10.70659790 8.31293509
286 58 3 4.54046000 10.97897000 8.94842000
287 58 4 4.82913513 11.26764513 9.23709513
288 58 4 4.82913513 10.69029487 8.65974487
289 58 4 4.25178487 11.26764513 8.65974487
290 58 4 4.25178487 10.69029487 9.23709513
291 59 1 6.57101000 11.32583000 8.38719000
292 59 2 6.58214323 11.50591415 7.92087922
293 59 2 6.25746024 11.59964724 8.66415691
294 59 2 7.02976343 11.34678444 8.58494289
295 59 2 6.41467310 10.85097417 8.37878099
296 60 3 5.10169000 4.19360000 9.29528000
297 60 4 5.29387116 3.73217915 9.30781793
298 60 4 4.63153602 4.17379079 9.12627459
299 60 4 5.37617645 4.48026142 8.99117078
300 60 4 5.10517637 4.38816864 9.75585669
301 61 3 7.47910000 9.85651000 8.94842000
302 61 4 7.94473030 9.83033058 8.76813394
303 61 4 7.47125357 9.67971731 9.41605530
304 61 4 7.17379747 9.58330053 8.66180711
305 61 4 7.32661866 10.33269158 8.94768364
306 62 3 6.00978000 10.41774000 9.85651000
307 62 4 6.03248652 10.59197095 10.32462109
308 62 4 5.53350507 10.40986680 9.70452250
309 62 4 6.19708143 9.95437862 9.84186732
310 62 4 6.27604699 10.71474363 9.55502910
311 63 3 7.13224000 10.41774000 8.04033000
312 63 4 7.59514390 10.43426239 7.85205627
313 63 4 6.85231078 10.10610153 7.76734447
314 63 4 6.93131527 10.87545531 8.02910721
315 63 4 7.15019005 10.25514077 8.51281205
316 64 3 5.66292000 10.97897000 8.94842000
317 64 4 5.19262697 10.99969145 9.11692840
318 64 4 5.85883462 11.43896870 8.94410036
319 64 4 5.66569660 10.79227191 8.48459233
320 64 4 5.93452182 10.68494794 9.24805891
321 65 3 6.91787000 8.94842000 10.41774000
322 65 4 6.91180523 9.13539998 9.95405724
323 65 4 6.73292513 8.48391099 10.41256641
324 65 4 6.63864185 9.23566349 10.71694364
325 65 4 7.38810779 8.93870555 10.58739271
326 66 3 6.57101000 9.50965000 9.50965000
327 66 4 6.77025567 9.05106795 9.50773301
328 66 4 6.55695851 9.68330533 9.97831447
329 66 4 6.10673521 9.49042221 9.32504442
330 66 4 6.85009060 9.81380451 9.22750809
331 67 1 7.47910000 9.85651000 10.76460000
332 67 2 7.75818851 10.15195534 10.47335843
333 67 2 7.00581039 9.86271280 10.60348368
334 67 2 7.49688206 10.02231750 11.23597212
335 67 2 7.65551904 9.38905435 10.74558577
336 68 1 7.13224000 10.41774000 9.85651000
337 68 2 7.40033422 10.11120247 10.14661383
338 68 2 7.33339125 10.87537490 9.86692507
339 68 2 6.66213760 10.43842844 10.02555356
340 68 2 7.13309693 10.24595419 9.38694754
341 69 3 6.91787000 8.94842000 4.54046000
342 69 4 6.93154827 9.10981061 5.01349908
343 69 4 6.44486364 8.94716355 4.37840014
344 69 4 7.10326181 8.48464512 4.51716328
345 69 4 7.19180629 9.25206071 4.25277750
346 70 3 6.57101000 9.50965000 11.32583000
347 70 4 6.29880927 9.79111065 11.63677480
348 70 4 6.56048456 9.70956543 10.86765641
349 70 4 6.38134267 9.04728022 11.31032236
350 70 4 7.04340350 9.49064370 11.48856643
351 71 1 7.47910000 8.04033000 4.19360000
352 71 2 7.19127064 7.77040778 4.50067695
353 71 2 7.74532436 7.73351585 3.90207013
354 71 2 7.78938438 8.32495784 4.46324902
355 71 2 7.19042062 8.33243853 3.90840390
356 72 3 7.47910000 8.04033000 6.00978000
357 72 4 7.29811295 7.57423620 6.01028366
358 72 4 7.45948579 8.22623611 5.54604063
359 72 4 7.95361439 8.03503429 6.16728572
360 72 4 7.20518687 8.32581340 6.31550999
361 73 3 7.47910000 10.97897000 8.94842000
362 73 4 7.93985732 10.96387987 9.14200457
363 73 4 7.50185027 11.14278752 8.47656594
364 73 4 7.19475125 11.28879996 9.21888477
365 73 4 7.27994115 10.52041265 8.95622472
366 74 3 8.04033000 10.76460000 10.41774000
367 74 4 7.74352749 10.47089404 10.14270349
368 74 4 8.03665909 10.60753662 10.89241633
369 74 4 7.87427098 11.23575361 10.39679532
370 74 4 8.50686245 10.74421573 10.23904486
371 75 3 8.94842000 9.29528000 5.10169000
372 75 4 9.41622579 9.32356908 4.92745605
373 75 4 8.95233522 9.08850433 5.55691356
374 75 4 8.67246341 9.01449076 4.79346060
375 75 4 8.75265558 9.75455583 5.12892979
376 76 3 8.38719000 8.38719000 6.57101000
377 76 4 8.84759714 8.38667446 6.76601000
378 76 4 8.21010506 7.91971686 6.56053224
379 76 4 8.40342727 8.56972940 6.10580497
380 76 4 8.08763053 8.67263929 6.85169279
381 77 3 8.04033000 8.94842000 5.66292000
382 77 4 8.01771376 9.11701846 5.19274655
383 77 4 8.51549512 8.95177302 5.81850556
384 77 4 7.86222040 8.48158142 5.68132436
385 77 4 7.76589071 9.24330710 5.95910353
386 78 3 9.50965000 8.38719000 6.57101000
387 78 4 9.21644335 8.08363962 6.83912755
388 78 4 9.22558037 8.69113173 6.29365848
389 78 4 9.80296129 8.11422167 6.27191675
390 78 4 9.79361499 8.65976698 6.87933721
391 79 3 8.04033000 8.94842000 7.47910000
392 79 4 8.03758651 9.10448893 7.95411049
393 79 4 8.20980323 8.47844428 7.45905880
394 79 4 8.33821651 9.24471095 7.20803673
395 79 4 7.57571375 8.96603583 7.29519398
396 80 1 8.94842000 4.54046000 8.04033000
397 80 2 9.24441720 4.82987261 8.32073329
398 80 2 8.64937661 4.82838710 7.76163476
399 80 2 8.67040114 4.24943501 8.33699474
400 80 2 9.22948505 4.25414528 7.74195721
401 81 3 8.38719000 11.32583000 9.50965000
402 81 4 8.36505093 11.14154094 9.04537917
403 81 4 7.93045953 11.32048762 9.71304305
404 81 4 8.55740609 11.79572057 9.49450629
405 81 4 8.69584345 11.04557086 9.78567149
406 82 3 8.94842000 4.54046000 9.85651000
407 82 4 9.14103689 5.00186828 9.85757270
408 82 4 8.96124528 4.35556909 9.39212777
409 82 4 8.47491304 4.55715317 10.01623631
410 82 4 9.21648479 4.24724947 10.16010323
411 83 3 9.85651000 10.76460000 10.41774000
412 83 4 10.03043824 10.29604479 10.43205705
413 83 4 10.14099244 11.03868636 10.11123323
414 83 4 9.86925698 10.96122492 10.87727906
415 83 4 9.38535233 10.76244392 10.25039066
416 84 3 8.38719000 11.32583000 11.32583000
417 84 4 8.10376290 11.61342130 11.62072036
418 84 4 8.20533716 10.86008374 11.32267363
419 84 4 8.85614464 11.32047391 11.49918761
420 84 4 8.38351531 11.50934106 10.86073841
421 85 3 9.50965000 11.32583000 9.50965000
422 85 4 9.80587119 11.03312085 9.23292928
423 85 4 9.21458188 11.59569835 9.20947359
424 85 4 9.79060541 11.63268644 9.78696423
425 85 4 9.22754151 11.04181436 9.80923290
426 86 1 8.04033000 4.19360000 10.41774000
427 86 2 7.56711940 4.18725933 10.57908289
428 86 2 8.21686132 4.66098792 10.43736720
429 86 2 8.05784063 4.02849571 9.94611096
430 86 2 8.31949865 3.89765704 10.70839895
431 87 3 8.94842000 10.41774000 10.97897000
432 87 4 8.76657528 9.95237156 10.99806728
433 87 4 9.42450025 10.41704952 11.13176764
434 87 4 8.67816379 10.71464279 11.27698059
435 87 4 8.92444068 10.58689614 10.50906449
436 88 3 9.50965000 11.32583000 11.32583000
437 88 4 9.98406186 11.33583582 11.48341575
438 88 4 9.23010456 11.61787723 11.62004549
439 88 4 9.33760244 10.85674404 11.34475087
440 88 4 9.48683114 11.49286290 10.85510789
441 89 1 8.04033000 4.19360000 4.54046000
442 89 2 7.73835802 3.92854491 4.24287182
443 89 2 8.50843469 4.17023556 4.36629885
444 89 2 8.02517618 4.00543925 5.00345665
445 89 2 7.88935111 4.67018029 4.54921268
446 90 1 10.41774000 9.85651000 4.19360000
447 90 2 10.70128173 10.14595820 4.48655704
448 90 2 10.11929559 10.14406782 3.91388328
449 90 2 10.13904687 9.55394269 4.47782379
450 90 2 10.71133581 9.58207129 3.89613588
451 91 1 8.94842000 10.41774000 5.10169000
452 91 2 9.23709513 10.70641513 5.39036513
453 91 2 9.23709513 10.12906487 4.81301487
454 91 2 8.65974487 10.70641513 4.81301487
455 91 2 8.65974487 10.12906487 5.39036513
456 92 3 9.85651000 8.94842000 5.66292000
457 92 4 9.54642834 9.22922570 5.38906324
458 92 4 10.14263342 8.67212778 5.35994146
459 92 4 9.59007478 8.64772238 5.96056613
460 92 4 10.14690346 9.24460414 5.94210917
461 93 3 8.38719000 9.50965000 6.57101000
462 93 4 8.67586513 9.79832513 6.85968513
463 93 4 8.67586513 9.22097487 6.28233487
464 93 4 8.09851487 9.79832513 6.28233487
465 93 4 8.09851487 9.22097487 6.85968513
466 94 3 4.19360000 9.29528000 5.10169000
467 94 4 3.71829989 9.30388432 5.25666024
468 94 4 4.21540368 9.10067990 4.64162978
469 94 4 4.46572573 9.01538857 5.41411340
470 94 4 4.37497070 9.76116721 5.09435658
471 95 1 10.41774000 9.85651000 6.00978000
472 95 2 10.58824474 10.32653083 6.00685578
473 95 2 10.39682435 9.68388370 5.54099146
474 95 2 9.96043039 9.84636265 6.21168332
475 95 2 10.72546053 9.56926282 6.27958944
476 96 3 8.94842000 10.41774000 6.91787000
477 96 4 9.14038794 9.95607134 6.91465247
478 96 4 8.48389125 10.40637410 6.73325187
479 96 4 9.23226392 10.71823127 6.63655589
480 96 4 8.93713689 10.59028330 7.38701976
481 97 3 11.32583000 8.38719000 6.57101000
482 97 4 11.52132717 7.92706645 6.56281391
483 97 4 11.59241417 8.68688452 6.27248684
484 97 4 11.33695403 8.56470331 7.03830571
485 97 4 10.85262462 8.37010572 6.41043353
486 98 3 9.85651000 8.94842000 7.47910000
487 98 4 9.88748928 8.77250093 7.94610403
488 98 4 9.67126391 9.41275517 7.48785981
489 98 4 9.55538531 8.65390103 7.20968860
490 98 4 10.31190151 8.95452286 7.27274756
491 99 3 10.97897000 8.94842000 5.66292000
492 99 4 10.97764307 9.10970708 5.18964976
493 99 4 11.44607393 8.95818259 5.84101719
494 99 4 10.80383693 8.48040627 5.67999514
495 99 4 10.68832606 9.24538407 5.94101791
496 100 3 9.50965000 9.50965000 6.57101000
497 100 4 9.04763643 9.51151012 6.76216438
498 100 4 9.68330068 9.97806528 6.55021178
499 100 4 9.49867724 9.31536276 6.11043203
500 100 4 9.80898565 9.23366184 6.86123181
501 101 1 10.41774000 8.04033000 7.13224000
502 101 2 10.44571518 7.85333455 7.59511157
503 101 2 10.11164280 7.75718530 6.85631686
504 101 2 10.87317049 8.04336643 6.92590569
505 101 2 10.24043152 8.50743373 7.15162588
506 102 3 10.97897000 8.94842000 7.47910000
507 102 4 10.95889307 9.13393824 7.94297488
508 102 4 11.17418497 8.48828242 7.49192652
509 102 4 11.26522226 9.24302212 7.19402240
510 102 4 10.51757970 8.92843722 7.28747620
511 103 3 8.38719000 6.57101000 8.38719000
512 103 4 8.37587517 6.75653886 8.85135702
513 103 4 7.92656984 6.57985257 8.19289415
514 103 4 8.55361234 6.09969592 8.40009929
515 103 4 8.69270265 6.84795265 8.10440954
516 104 3 9.29528000 5.10169000 8.94842000
517 104 4 9.29138001 5.29299347 8.48648085
518 104 4 9.11715794 4.63463557 8.93690090
519 104 4 9.00878298 5.38200350 9.24732433
520 104 4 9.76379907 5.09712747 9.12297392
521 105 3 8.94842000 5.66292000 8.04033000
522 105 4 9.11837798 5.19272951 8.04626236
523 105 4 8.95444620 5.84819032 8.50469903
524 105 4 8.48034497 5.66874298 7.86462611
525 105 4 9.24051086 5.94201719 7.74573250
526 106 3 9.50965000 6.57101000 8.38719000
527 106 4 9.79958032 6.87633597 8.65684990
528 106 4 9.23292232 6.28967758 8.69423049
529 106 4 9.79682443 6.27557575 8.10390666
530 106 4 9.20927293 6.84245070 8.09377295
531 107 1 4.19360000 4.54046000 8.04033000
532 107 2 3.91038040 4.25187839 7.74620875
533 107 2 4.16885789 4.37373920 8.51106560
534 107 2 4.02735624 5.01163535 8.02144079
535 107 2 4.66780547 4.52458706 7.88260486
536 108 3 10.41774000 5.10169000 8.94842000
537 108 4 10.75110473 5.46684772 9.02276915
538 108 4 10.54886407 4.83574093 8.54583142
539 108 4 9.96511770 5.30142790 8.87604722
540 108 4 10.40587351 4.80274346 9.34903221
541 109 3 8.94842000 5.66292000 9.85651000
542 109 4 9.24620693 5.39261219 9.55942983
543 109 4 8.66706140 5.35644930 10.13384202
544 109 4 8.65266569 5.95304168 9.57658358
545 109 4 9.22774598 5.94957684 10.15618458
546 110 3 11.32583000 11.32583000 9.50965000
547 110 4 11.34069471 11.48592765 9.98309248
548 110 4 11.60089619 11.62894928 9.22249623
549 110 4 10.85267177 11.32717627 9.34803478
550 110 4 11.50905733 10.86126680 9.48497651
551 111 3 9.85651000 4.19360000 10.41774000
552 111 4 10.14518513 4.48227513 10.70641513
553 111 4 10.14518513 3.90492487 10.12906487
554 111 4 9.56783487 4.48227513 10.12906487
555 111 4 9.56783487 3.90492487 10.70641513
556 112 3 4.19360000 4.54046000 9.85651000
557 112 4 4.02902093 4.06857345 9.84112135
558 112 4 3.90498647 4.80764746 10.16523818
559 112 4 4.17498464 4.73850807 9.39778303
560 112 4 4.66540797 4.54711102 10.02189744
561 113 3 10.41774000 5.10169000 10.76460000
562 113 4 10.59087822 4.63355718 10.79417743
563 113 4 9.96043170 5.09779686 10.56247636
564 113 4 10.72391236 5.37488894 10.47890641
565 113 4 10.39573772 5.30051702 11.22283980
566 114 1 5.10169000 10.76460000 10.41774000
567 114 2 4.64029984 10.74287206 10.60917411
568 114 2 5.09714362 10.58509030 9.95109710
569 114 2 5.41174054 10.49079313 10.69862869
570 114 2 5.25757600 11.23964452 10.41206010
571 115 3 11.32583000 11.32583000 11.32583000
572 115 4 11.64391617 11.05749991 11.60299448
573 115 4 11.32290693 11.14961315 10.85792074
574 115 4 11.47030977 11.80449080 11.32275870
575 115 4 10.86618712 11.29171614 11.51964608
576 116 3 9.85651000 4.19360000 4.54046000
577 116 4 9.83797885 4.01629857 4.07331891
578 116 4 10.14491887 3.89611210 4.82031938
579 116 4 9.39492663 4.20662218 4.73221824
580 116 4 10.04821564 4.65536716 4.53598347
581 117 3 10.97897000 4.19360000 10.41774000
582 117 4 11.44263567 4.19271206 10.23062143
583 117 4 10.68223500 3.91314476 10.12913438
584 117 4 10.80505330 4.66222007 10.42991422
585 117 4 10.98595602 4.00632311 10.88128996
586 118 3 4.54046000 9.85651000 4.19360000
587 118 4 4.06775529 9.85451420 4.03066972
588 118 4 4.81317051 10.16512766 3.91007906
589 118 4 4.72853017 9.39410684 4.16508805
590 118 4 4.55238403 10.01229130 4.66856316
591 119 3 10.76460000 10.41774000 5.10169000
592 119 4 10.78074390 10.59501180 4.63444907
593 119 4 10.58735970 9.95023660 5.09654665
594 119 4 10.46522547 10.70643754 5.37923032
595 119 4 11.22507093 10.41927406 5.29653397
596 120 1 4.19360000 10.41774000 10.97897000
597 120 2 4.16469083 10.58240835 10.50774967
598 120 2 4.66741503 10.44507190 11.13629860
599 120 2 4.03832706 9.94290047 10.99940864
600 120 2 3.90396708 10.70057928 11.27242309
601 121 3 10.41774000 10.97897000 4.19360000
602 121 4 10.58389189 10.50738844 4.19150703
603 121 4 10.41360859 11.15214304 4.66263521
604 121 4 9.95424807 10.99320863 4.00659068
605 121 4 10.71921145 11.26313988 3.91366708
606 122 3 5.10169000 10.76460000 4.54046000
607 122 4 5.26352281 11.23767676 4.53753975
608 122 4 5.12988496 10.57595005 4.07827362
609 122 4 4.62700965 10.75179605 4.69703148
610 122 4 5.38634257 10.49297714 4.84899515
611 123 3 11.32583000 11.32583000 5.44855000
612 123 4 11.14273250 11.79080894 5.43212154
613 123 4 11.79833875 11.32689602 5.28504360
614 123 4 11.04947202 11.02750885 5.15763634
615 123 4 11.31277672 11.15810619 5.91939852
616 124 3 6.00978000 9.29528000 5.10169000
617 124 4 6.47091132 9.28592407 4.90863465
618 124 4 6.02001065 9.11175052 5.56667630
619 124 4 5.70519505 9.01691586 4.81930479
620 124 4 5.84300298 9.76652954 5.11214426
621 125 1 4.54046000 9.85651000 6.00978000
622 125 2 4.24659398 10.12551597 6.31190340
623 125 2 4.37916478 9.38337906 5.99833609
624 125 2 5.01029468 9.86834297 6.18041220
625 125 2 4.52578656 10.04880200 5.54846831
626 126 3 5.66292000 9.85651000 4.19360000
627 126 4 5.94836498 10.15815639 3.91515679
628 126 4 5.84594648 9.39151744 4.17677070
629 126 4 5.19563594 9.85823398 4.01571624
630 126 4 5.66173261 10.01813219 4.66675627
631 127 1 4.19360000 10.41774000 5.10169000
632 127 2 3.72804913 10.39832739 5.28303370
633 127 2 4.35146796 10.89215091 5.09822578
634 127 2 4.19854713 10.23703322 4.63551344
635 127 2 4.49633578 10.14344848 5.38998709
636 128 3 10.41774000 10.97897000 6.00978000
637 128 4 10.15285429 11.27949288 6.30898154
638 128 4 10.41441453 11.16198735 5.54449128
639 128 4 10.21480759 10.52200415 6.01058703
640 128 4 10.88888359 10.95239563 6.17506015
641 129 3 5.10169000 8.94842000 5.66292000
642 129 4 4.93468352 8.47714045 5.66502256
643 129 4 5.57646181 8.95769795 5.81946282
644 129 4 4.81999076 9.22643196 5.96846033
645 129 4 5.07562392 9.13240965 5.19873429
646 130 3 11.32583000 9.50965000 6.57101000
647 130 4 11.61008061 9.80260713 6.28225802
648 130 4 11.30920489 9.69767901 7.03400967
649 130 4 11.52099052 9.04952006 6.58489556
650 130 4 10.86304398 9.48879380 6.38287675
651 131 3 5.66292000 9.85651000 6.00978000
652 131 4 6.13452884 9.84577852 6.17552056
653 131 4 5.39375026 10.16840868 6.29309407
654 131 4 5.46689727 9.39723032 6.03502409
655 131 4 5.65650363 10.01462248 5.53548129
656 132 1 4.19360000 10.41774000 6.91787000
657 132 2 4.47650136 10.71247034 7.20614217
658 132 2 3.90954522 10.12491033 7.20694381
659 132 2 4.48795585 10.13331450 6.63071714
660 132 2 3.90039756 10.70026483 6.62767687
661 133 3 6.57101000 8.38719000 6.57101000
662 133 4 6.29469521 8.10604652 6.26342508
663 133 4 6.55460155 8.19503075 7.03231856
664 133 4 6.39036184 8.85336126 6.57812374
665 133 4 7.04438140 8.39432148 6.41017261
666 134 3 11.32583000 6.57101000 8.38719000
667 134 4 11.35118250 6.39581733 7.91957394
668 134 4 11.59320221 6.27657259 8.69020603
669 134 4 10.84904457 6.57596500 8.53769285
670 134 4 11.50989071 7.03568508 8.40128718
671 135 1 6.00978000 4.54046000 8.04033000
672 135 2 5.83791886 5.00985843 8.02897821
673 135 2 6.02300858 4.37921251 8.51343068
674 135 2 6.47056708 4.52695336 7.84669933
675 135 2 5.70762548 4.24581569 7.77221178
676 136 3 4.54046000 5.10169000 8.94842000
677 136 4 4.51940408 5.28575498 8.48400991
678 136 4 4.38516720 4.62642104 8.94653114
679 136 4 4.24573444 5.37213782 9.24841138
680 136 4 5.01153428 5.12244616 9.11472757
681 137 1 4.19360000 5.66292000 8.04033000
682 137 2 4.01774552 6.13086605 8.05041441
683 137 2 3.92070215 5.38911538 7.72322152
684 137 2 4.16574020 5.46449493 8.49842532
685 137 2 4.67021214 5.66720364 7.88925875
686 138 3 5.10169000 6.00978000 9.29528000
687 138 4 4.93806646 6.48218922 9.30282044
688 138 4 5.57404767 5.99959675 9.13165077
689 138 4 4.81356848 5.73846299 8.98970994
690 138 4 5.08107739 5.81887104 9.75693884
691 139 3 6.00978000 4.54046000 9.85651000
692 139 4 6.30366609 4.26092069 10.14889458
693 139 4 6.01316980 4.35604280 9.39177480