LAMMPS data file generated from MC_GPU coords

7695 atoms
2 atom types

-11.540205 11.540205 xlo xhi
-11.540205 11.540205 ylo yhi
-11.540205 11.540205 zlo zhi

Atoms

1 1 -14.69322000 -14.69322000 -14.69322000
2 1 -13.57076000 -14.69322000 -14.69322000
3 2 -14.69322000 -13.57076000 -14.69322000
4 1 -11.75458000 -14.69322000 -14.69322000
5 1 -13.22390000 -14.13199000 -13.78513000
6 1 -12.66267000 -15.04008000 -14.13199000
7 2 -12.66267000 -15.04008000 -12.31581000
8 1 -11.75458000 -13.57076000 -14.69322000
9 1 -18.53995000 -15.04008000 -14.13199000
10 1 -16.50940000 -14.69322000 -14.69322000
11 2 -17.97872000 -14.13199000 -13.78513000
12 1 -17.41749000 -15.04008000 -14.13199000
13 2 -16.50940000 -13.57076000 -14.69322000
14 1 -15.60131000 -15.04008000 -14.13199000
15 1 -15.60131000 -15.04008000 -12.31581000
16 1 -14.69322000 -14.69322000 -13.57076000
17 2 -14.13199000 -13.78513000 -13.22390000
18 1 -14.69322000 -14.69322000 -11.75458000
19 2 -15.04008000 -14.13199000 -12.66267000
20 2 -13.57076000 -14.69322000 -11.75458000
21 1 -15.04008000 -14.13199000 -18.53995000
22 2 -14.69322000 -11.75458000 -14.69322000
23 1 -13.78513000 -13.22390000 -14.13199000
24 1 -14.13199000 -12.66267000 -15.04008000
25 1 -13.57076000 -11.75458000 -14.69322000
26 1 -12.66267000 -13.22390000 -14.13199000
27 1 -14.13199000 -12.66267000 -13.22390000
28 2 -11.75458000 -14.69322000 -13.57076000
29 2 -13.22390000 -14.13199000 -12.66267000
30 1 -14.69322000 -13.57076000 -11.75458000
31 2 -12.66267000 -13.22390000 -12.31581000
32 2 -11.75458000 -14.69322000 -11.75458000
33 1 -13.22390000 -14.13199000 -18.53995000
34 2 -12.10144000 -14.13199000 -12.66267000
35 1 -13.57076000 -13.57076000 -11.75458000
36 2 -12.66267000 -15.04008000 -18.88681000
37 1 -12.10144000 -14.13199000 -18.53995000
38 1 -12.66267000 -15.04008000 -17.07063000
39 1 -12.31581000 -12.66267000 -15.04008000
40 1 -11.75458000 -11.75458000 -14.69322000
41 1 -18.53995000 -13.22390000 -14.13199000
42 2 -12.31581000 -12.66267000 -13.22390000
43 1 -18.88681000 -12.66267000 -15.04008000
44 1 -12.66267000 -12.10144000 -14.13199000
45 2 -11.75458000 -13.57076000 -13.57076000
46 1 -17.41749000 -13.22390000 -14.13199000
47 2 -18.88681000 -12.66267000 -13.22390000
48 1 -16.50940000 -14.69322000 -13.57076000
49 1 -17.97872000 -14.13199000 -12.66267000
50 1 -11.75458000 -13.57076000 -11.75458000
51 2 -18.53995000 -15.04008000 -18.88681000
52 1 -16.50940000 -14.69322000 -11.75458000
53 1 -17.97872000 -14.13199000 -18.53995000
54 2 -18.53995000 -15.04008000 -17.07063000
55 1 -17.41749000 -15.04008000 -18.88681000
56 1 -17.41749000 -15.04008000 -17.07063000
57 1 -17.07063000 -12.66267000 -15.04008000
58 1 -18.53995000 -12.10144000 -14.13199000
59 1 -16.50940000 -11.75458000 -14.69322000
60 2 -17.97872000 -18.88681000 -13.78513000
61 1 -15.60131000 -13.22390000 -14.13199000
62 1 -17.07063000 -12.66267000 -13.22390000
63 2 -15.94817000 -12.66267000 -15.04008000
64 1 -17.41749000 -12.10144000 -14.13199000
65 1 -16.16254000 -14.13199000 -12.66267000
66 2 -16.50940000 -13.57076000 -13.57076000
67 1 -15.60131000 -13.22390000 -12.31581000
68 1 -15.94817000 -12.66267000 -13.22390000
69 2 -16.16254000 -14.13199000 -18.53995000
70 1 -16.50940000 -13.57076000 -11.75458000
71 2 -15.60131000 -15.04008000 -18.88681000
72 1 -15.60131000 -15.04008000 -17.07063000
73 1 -15.60131000 -12.10144000 -14.13199000
74 1 -15.04008000 -12.31581000 -12.66267000
75 1 -14.13199000 -13.78513000 -17.97872000
76 1 -14.69322000 -14.69322000 -16.50940000
77 1 -15.04008000 -14.13199000 -17.41749000
78 1 -13.57076000 -14.69322000 -16.50940000
79 1 -15.04008000 -14.13199000 -15.60131000
80 2 -14.13199000 -18.53995000 -15.04008000
81 1 -14.69322000 -11.75458000 -13.57076000
82 1 -14.13199000 -18.53995000 -13.22390000
83 1 -13.22390000 -12.31581000 -12.66267000
84 1 -14.69322000 -11.75458000 -11.75458000
85 1 -13.57076000 -11.75458000 -13.57076000
86 1 -15.04008000 -18.88681000 -12.66267000
87 1 -14.13199000 -12.66267000 -12.10144000
88 1 -13.57076000 -11.75458000 -11.75458000
89 2 -15.04008000 -18.88681000 -18.53995000
90 1 -12.66267000 -13.22390000 -18.88681000
91 2 -14.13199000 -12.66267000 -17.97872000
92 1 -13.22390000 -14.13199000 -17.41749000
93 2 -14.69322000 -13.57076000 -16.50940000
94 1 -18.88681000 -13.78513000 -17.97872000
95 1 -12.66267000 -13.22390000 -17.07063000
96 2 -14.13199000 -12.66267000 -16.16254000
97 1 -11.75458000 -14.69322000 -16.50940000
98 1 -13.22390000 -14.13199000 -15.60131000
99 1 -12.10144000 -14.13199000 -17.41749000
100 1 -13.57076000 -13.57076000 -16.50940000
101 1 -12.66267000 -15.04008000 -15.94817000
102 1 -12.10144000 -14.13199000 -15.60131000
103 1 -14.69322000 -16.50940000 -14.69322000
104 1 -13.78513000 -17.97872000 -14.13199000
105 2 -14.13199000 -17.41749000 -15.04008000
106 1 -13.57076000 -16.50940000 -14.69322000
107 1 -18.88681000 -18.53995000 -15.04008000
108 2 -12.66267000 -17.97872000 -14.13199000
109 2 -14.13199000 -17.41749000 -13.22390000
110 1 -11.75458000 -11.75458000 -13.57076000
111 1 -13.22390000 -18.88681000 -12.66267000
112 1 -18.88681000 -18.53995000 -13.22390000
113 1 -12.66267000 -17.97872000 -12.31581000
114 2 -17.97872000 -12.31581000 -12.66267000
115 1 -11.75458000 -11.75458000 -11.75458000
116 2 -13.22390000 -18.88681000 -18.53995000
117 2 -12.10144000 -18.88681000 -12.66267000
118 1 -18.53995000 -13.22390000 -18.88681000
119 2 -12.31581000 -12.66267000 -17.97872000
120 1 -18.88681000 -12.66267000 -12.10144000
121 2 -12.66267000 -12.10144000 -18.88681000
122 1 -17.97872000 -12.31581000 -18.53995000
123 1 -11.75458000 -11.75458000 -17.63186000
124 2 -17.07063000 -13.78513000 -17.97872000
125 1 -18.53995000 -13.22390000 -17.07063000
126 2 -17.41749000 -13.22390000 -18.88681000
127 1 -18.88681000 -12.66267000 -17.97872000
128 1 -12.66267000 -12.10144000 -17.07063000
129 2 -17.97872000 -14.13199000 -17.41749000
130 2 -11.75458000 -13.57076000 -16.50940000
131 1 -17.41749000 -13.22390000 -17.07063000
132 2 -18.88681000 -12.66267000 -16.16254000
133 1 -16.50940000 -14.69322000 -16.50940000
134 1 -11.75458000 -16.50940000 -14.69322000
135 2 -17.07063000 -18.53995000 -15.04008000
136 2 -18.53995000 -17.97872000 -14.13199000
137 1 -18.88681000 -17.41749000 -15.04008000
138 2 -17.97872000 -17.07063000 -13.78513000
139 1 -17.07063000 -18.53995000 -13.22390000
140 2 -18.53995000 -17.97872000 -12.31581000
141 2 -17.41749000 -17.97872000 -14.13199000
142 2 -18.88681000 -17.41749000 -13.22390000
143 2 -17.63186000 -11.75458000 -11.75458000
144 1 -16.50940000 -11.75458000 -13.57076000
145 1 -17.97872000 -18.88681000 -12.66267000
146 2 -17.07063000 -12.66267000 -12.10144000
147 1 -17.41749000 -17.97872000 -12.31581000
148 1 -16.50940000 -11.75458000 -11.75458000
149 1 -17.97872000 -18.88681000 -18.53995000
150 2 -15.60131000 -13.22390000 -18.88681000
151 1 -17.07063000 -12.66267000 -17.97872000
152 2 -16.16254000 -14.13199000 -17.41749000
153 1 -16.50940000 -11.75458000 -17.63186000
154 1 -15.60131000 -13.22390000 -17.07063000
155 1 -17.07063000 -12.66267000 -16.16254000
156 1 -15.94817000 -12.66267000 -17.97872000
157 1 -16.16254000 -14.13199000 -15.60131000
158 1 -16.50940000 -13.57076000 -16.50940000
159 1 -15.60131000 -15.04008000 -15.94817000
160 1 -17.07063000 -17.41749000 -15.04008000
161 1 -16.50940000 -16.50940000 -14.69322000
162 2 -17.07063000 -17.41749000 -13.22390000
163 2 -16.16254000 -18.88681000 -12.66267000
164 1 -15.60131000 -17.97872000 -12.31581000
165 1 -15.60131000 -12.10144000 -18.88681000
166 1 -15.60131000 -12.10144000 -17.07063000
167 1 -15.04008000 -12.31581000 -15.60131000
168 2 -15.04008000 -17.07063000 -12.66267000
169 1 -14.13199000 -18.53995000 -12.10144000
170 1 -15.04008000 -17.07063000 -18.53995000
171 1 -14.13199000 -18.53995000 -17.97872000
172 2 -14.69322000 -11.75458000 -16.50940000
173 1 -15.04008000 -18.88681000 -17.41749000
174 1 -14.13199000 -18.53995000 -16.16254000
175 1 -13.22390000 -12.31581000 -15.60131000
176 1 -13.57076000 -11.75458000 -16.50940000
177 1 -15.04008000 -18.88681000 -15.60131000
178 1 -12.66267000 -13.22390000 -15.94817000
179 1 -14.13199000 -15.60131000 -15.04008000
180 1 -14.69322000 -16.50940000 -13.57076000
181 1 -12.66267000 -16.16254000 -14.13199000
182 2 -14.13199000 -15.60131000 -13.22390000
183 1 -13.22390000 -17.07063000 -12.66267000
184 2 -14.69322000 -16.50940000 -11.75458000
185 1 -13.57076000 -16.50940000 -13.57076000
186 2 -15.04008000 -15.94817000 -12.66267000
187 1 -13.78513000 -17.97872000 -18.88681000
188 1 -14.13199000 -17.41749000 -12.10144000
189 1 -11.75458000 -17.63186000 -11.75458000
190 1 -13.22390000 -17.07063000 -18.53995000
191 1 -12.10144000 -17.07063000 -12.66267000
192 1 -13.57076000 -16.50940000 -11.75458000
193 1 -12.31581000 -18.53995000 -17.97872000
194 1 -13.78513000 -17.97872000 -17.07063000
195 1 -12.66267000 -17.97872000 -18.88681000
196 2 -14.13199000 -17.41749000 -17.97872000
197 2 -13.22390000 -18.88681000 -17.41749000
198 1 -18.88681000 -18.53995000 -17.97872000
199 2 -12.66267000 -17.97872000 -17.07063000
200 1 -14.13199000 -17.41749000 -16.16254000
201 1 -17.97872000 -12.31581000 -17.41749000
202 1 -11.75458000 -11.75458000 -16.50940000
203 1 -13.22390000 -18.88681000 -15.60131000
204 2 -17.97872000 -12.31581000 -15.60131000
205 1 -12.10144000 -18.88681000 -15.60131000
206 2 -12.31581000 -15.60131000 -15.04008000
207 2 -18.53995000 -16.16254000 -14.13199000
208 1 -12.31581000 -15.60131000 -13.22390000
209 1 -18.88681000 -15.60131000 -15.04008000
210 2 -11.75458000 -16.50940000 -13.57076000
211 1 -13.22390000 -15.94817000 -12.66267000
212 2 -17.41749000 -16.16254000 -14.13199000
213 1 -18.88681000 -15.60131000 -13.22390000
214 2 -17.97872000 -17.07063000 -12.66267000
215 1 -11.75458000 -16.50940000 -11.75458000
216 1 -18.53995000 -17.97872000 -18.88681000
217 2 -12.31581000 -17.41749000 -17.97872000
218 1 -16.50940000 -17.63186000 -11.75458000
219 2 -17.97872000 -17.07063000 -18.53995000
220 2 -11.75458000 -16.50940000 -17.63186000
221 1 -17.07063000 -18.53995000 -17.97872000
222 1 -18.53995000 -17.97872000 -17.07063000
223 2 -17.41749000 -17.97872000 -18.88681000
224 2 -18.88681000 -17.41749000 -17.97872000
225 1 -17.63186000 -11.75458000 -16.50940000
226 1 -17.97872000 -18.88681000 -17.41749000
227 1 -17.07063000 -18.53995000 -16.16254000
228 1 -15.94817000 -18.53995000 -17.97872000
229 1 -17.41749000 -17.97872000 -17.07063000
230 1 -16.50940000 -11.75458000 -16.50940000
231 1 -17.97872000 -18.88681000 -15.60131000
232 2 -15.60131000 -13.22390000 -15.94817000
233 2 -17.07063000 -15.60131000 -15.04008000
234 2 -15.60131000 -16.16254000 -14.13199000
235 1 -17.07063000 -15.60131000 -13.22390000
236 2 -15.94817000 -15.60131000 -15.04008000
237 1 -16.16254000 -17.07063000 -12.66267000
238 1 -17.63186000 -16.50940000 -11.75458000
239 1 -16.50940000 -16.50940000 -13.57076000
240 1 -17.97872000 -15.94817000 -12.66267000
241 2 -15.94817000 -15.60131000 -13.22390000
242 2 -16.16254000 -17.07063000 -18.53995000
243 1 -16.50940000 -16.50940000 -11.75458000
244 1 -17.97872000 -15.94817000 -18.53995000
245 1 -15.60131000 -17.97872000 -18.88681000
246 1 -17.07063000 -17.41749000 -17.97872000
247 1 -16.50940000 -16.50940000 -17.63186000
248 1 -15.60131000 -17.97872000 -17.07063000
249 1 -16.16254000 -18.88681000 -15.60131000
250 1 -15.04008000 -17.07063000 -17.41749000
251 2 -15.04008000 -17.07063000 -15.60131000
252 2 -14.13199000 -15.60131000 -12.10144000
253 1 -12.66267000 -16.16254000 -18.88681000
254 1 -13.22390000 -17.07063000 -17.41749000
255 2 -14.69322000 -16.50940000 -16.50940000
256 1 -12.66267000 -16.16254000 -17.07063000
257 2 -14.13199000 -15.60131000 -16.16254000
258 1 -11.75458000 -17.63186000 -16.50940000
259 1 -13.22390000 -17.07063000 -15.60131000
260 1 -13.57076000 -16.50940000 -16.50940000
261 1 -15.04008000 -15.94817000 -15.60131000
262 2 -12.66267000 -17.97872000 -15.94817000
263 1 -12.10144000 -17.07063000 -15.60131000
264 1 -12.31581000 -15.60131000 -17.97872000
265 1 -18.88681000 -15.60131000 -12.10144000
266 1 -18.53995000 -16.16254000 -17.07063000
267 1 -18.88681000 -15.60131000 -17.97872000
268 1 -17.97872000 -17.07063000 -17.41749000
269 1 -11.75458000 -16.50940000 -16.50940000
270 2 -13.22390000 -15.94817000 -15.60131000
271 1 -18.53995000 -17.97872000 -15.94817000
272 2 -18.88681000 -15.60131000 -16.16254000
273 1 -16.50940000 -17.63186000 -16.50940000
274 1 -17.97872000 -17.07063000 -15.60131000
275 2 -17.07063000 -15.60131000 -12.10144000
276 1 -15.60131000 -16.16254000 -18.88681000
277 1 -17.07063000 -15.60131000 -17.97872000
278 1 -17.63186000 -16.50940000 -16.50940000
279 1 -15.60131000 -16.16254000 -17.07063000
280 1 -17.07063000 -15.60131000 -16.16254000
281 1 -15.94817000 -15.60131000 -17.97872000
282 2 -16.16254000 -17.07063000 -15.60131000
283 1 -16.50940000 -16.50940000 -16.50940000
284 1 -17.97872000 -15.94817000 -15.60131000
285 1 -15.60131000 -17.97872000 -15.94817000
286 2 -6.99975000 -14.69322000 -14.69322000
287 1 -5.87729000 -14.69322000 -14.69322000
288 1 -6.99975000 -13.57076000 -14.69322000
289 1 -4.06111000 -14.69322000 -14.69322000
290 1 -5.53043000 -14.13199000 -13.78513000
291 1 -4.96920000 -15.04008000 -14.13199000
292 2 -4.96920000 -15.04008000 -12.31581000
293 2 -4.06111000 -13.57076000 -14.69322000
294 1 -10.84648000 -15.04008000 -14.13199000
295 1 -8.81593000 -14.69322000 -14.69322000
296 1 -10.28525000 -14.13199000 -13.78513000
297 1 -9.72402000 -15.04008000 -14.13199000
298 1 -8.81593000 -13.57076000 -14.69322000
299 2 -7.90784000 -15.04008000 -14.13199000
300 2 -7.90784000 -15.04008000 -12.31581000
301 1 -6.99975000 -14.69322000 -13.57076000
302 1 -6.43852000 -13.78513000 -13.22390000
303 2 -6.99975000 -14.69322000 -11.75458000
304 2 -7.34661000 -14.13199000 -12.66267000
305 1 -5.87729000 -14.69322000 -11.75458000
306 1 -7.34661000 -14.13199000 -18.53995000
307 2 -6.99975000 -11.75458000 -14.69322000
308 2 -6.09166000 -13.22390000 -14.13199000
309 1 -6.43852000 -12.66267000 -15.04008000
310 1 -5.87729000 -11.75458000 -14.69322000
311 1 -4.96920000 -13.22390000 -14.13199000
312 1 -6.43852000 -12.66267000 -13.22390000
313 1 -4.06111000 -14.69322000 -13.57076000
314 1 -5.53043000 -14.13199000 -12.66267000
315 1 -6.99975000 -13.57076000 -11.75458000
316 2 -4.96920000 -13.22390000 -12.31581000
317 1 -4.06111000 -14.69322000 -11.75458000
318 1 -5.53043000 -14.13199000 -18.53995000
319 1 -4.40797000 -14.13199000 -12.66267000
320 2 -5.87729000 -13.57076000 -11.75458000
321 1 -4.96920000 -15.04008000 -18.88681000
322 1 -4.40797000 -14.13199000 -18.53995000
323 1 -4.96920000 -15.04008000 -17.07063000
324 2 -4.62234000 -12.66267000 -15.04008000
325 1 -4.06111000 -11.75458000 -14.69322000
326 1 -10.84648000 -13.22390000 -14.13199000
327 1 -4.62234000 -12.66267000 -13.22390000
328 1 -11.19334000 -12.66267000 -15.04008000
329 2 -4.96920000 -12.10144000 -14.13199000
330 1 -4.06111000 -13.57076000 -13.57076000
331 2 -9.72402000 -13.22390000 -14.13199000
332 1 -11.19334000 -12.66267000 -13.22390000
333 1 -8.81593000 -14.69322000 -13.57076000
334 1 -10.28525000 -14.13199000 -12.66267000
335 1 -4.06111000 -13.57076000 -11.75458000
336 1 -10.84648000 -15.04008000 -18.88681000
337 2 -8.81593000 -14.69322000 -11.75458000
338 1 -10.28525000 -14.13199000 -18.53995000
339 1 -10.84648000 -15.04008000 -17.07063000
340 1 -9.72402000 -15.04008000 -18.88681000
341 2 -9.72402000 -15.04008000 -17.07063000
342 1 -9.37716000 -12.66267000 -15.04008000
343 2 -10.84648000 -12.10144000 -14.13199000
344 1 -8.81593000 -11.75458000 -14.69322000
345 2 -10.28525000 -18.88681000 -13.78513000
346 1 -7.90784000 -13.22390000 -14.13199000
347 1 -9.37716000 -12.66267000 -13.22390000
348 1 -8.25470000 -12.66267000 -15.04008000
349 1 -9.72402000 -12.10144000 -14.13199000
350 1 -8.46907000 -14.13199000 -12.66267000
351 1 -8.81593000 -13.57076000 -13.57076000
352 1 -7.90784000 -13.22390000 -12.31581000
353 2 -8.25470000 -12.66267000 -13.22390000
354 1 -8.46907000 -14.13199000 -18.53995000
355 2 -8.81593000 -13.57076000 -11.75458000
356 1 -7.90784000 -15.04008000 -18.88681000
357 1 -7.90784000 -15.04008000 -17.07063000
358 2 -7.90784000 -12.10144000 -14.13199000
359 1 -7.34661000 -12.31581000 -12.66267000
360 1 -6.43852000 -13.78513000 -17.97872000
361 1 -6.99975000 -14.69322000 -16.50940000
362 1 -7.34661000 -14.13199000 -17.41749000
363 2 -5.87729000 -14.69322000 -16.50940000
364 1 -7.34661000 -14.13199000 -15.60131000
365 1 -6.43852000 -18.53995000 -15.04008000
366 2 -6.99975000 -11.75458000 -13.57076000
367 1 -6.43852000 -18.53995000 -13.22390000
368 1 -5.53043000 -12.31581000 -12.66267000
369 1 -6.99975000 -11.75458000 -11.75458000
370 1 -5.87729000 -11.75458000 -13.57076000
371 1 -7.34661000 -18.88681000 -12.66267000
372 1 -6.43852000 -12.66267000 -12.10144000
373 1 -5.87729000 -11.75458000 -11.75458000
374 1 -7.34661000 -18.88681000 -18.53995000
375 2 -4.96920000 -13.22390000 -18.88681000
376 2 -6.43852000 -12.66267000 -17.97872000
377 1 -5.53043000 -14.13199000 -17.41749000
378 1 -6.99975000 -13.57076000 -16.50940000
379 2 -11.19334000 -13.78513000 -17.97872000
380 1 -4.96920000 -13.22390000 -17.07063000
381 1 -6.43852000 -12.66267000 -16.16254000
382 2 -4.06111000 -14.69322000 -16.50940000
383 1 -5.53043000 -14.13199000 -15.60131000
384 2 -4.40797000 -14.13199000 -17.41749000
385 1 -5.87729000 -13.57076000 -16.50940000
386 1 -4.96920000 -15.04008000 -15.94817000
387 1 -4.40797000 -14.13199000 -15.60131000
388 1 -6.99975000 -16.50940000 -14.69322000
389 1 -6.09166000 -17.97872000 -14.13199000
390 1 -6.43852000 -17.41749000 -15.04008000
391 2 -5.87729000 -16.50940000 -14.69322000
392 1 -11.19334000 -18.53995000 -15.04008000
393 1 -4.96920000 -17.97872000 -14.13199000
394 1 -6.43852000 -17.41749000 -13.22390000
395 2 -4.06111000 -11.75458000 -13.57076000
396 1 -5.53043000 -18.88681000 -12.66267000
397 2 -11.19334000 -18.53995000 -13.22390000
398 1 -4.96920000 -17.97872000 -12.31581000
399 1 -10.28525000 -12.31581000 -12.66267000
400 1 -4.06111000 -11.75458000 -11.75458000
401 1 -5.53043000 -18.88681000 -18.53995000
402 2 -4.40797000 -18.88681000 -12.66267000
403 1 -10.84648000 -13.22390000 -18.88681000
404 2 -4.62234000 -12.66267000 -17.97872000
405 2 -11.19334000 -12.66267000 -12.10144000
406 2 -4.96920000 -12.10144000 -18.88681000
407 1 -10.28525000 -12.31581000 -18.53995000
408 1 -4.06111000 -11.75458000 -17.63186000
409 1 -9.37716000 -13.78513000 -17.97872000
410 1 -10.84648000 -13.22390000 -17.07063000
411 2 -9.72402000 -13.22390000 -18.88681000
412 1 -11.19334000 -12.66267000 -17.97872000
413 2 -4.96920000 -12.10144000 -17.07063000
414 2 -10.28525000 -14.13199000 -17.41749000
415 1 -4.06111000 -13.57076000 -16.50940000
416 1 -9.72402000 -13.22390000 -17.07063000
417 1 -11.19334000 -12.66267000 -16.16254000
418 2 -8.81593000 -14.69322000 -16.50940000
419 1 -4.06111000 -16.50940000 -14.69322000
420 1 -9.37716000 -18.53995000 -15.04008000
421 2 -10.84648000 -17.97872000 -14.13199000
422 1 -11.19334000 -17.41749000 -15.04008000
423 1 -10.28525000 -17.07063000 -13.78513000
424 1 -9.37716000 -18.53995000 -13.22390000
425 2 -10.84648000 -17.97872000 -12.31581000
426 2 -9.72402000 -17.97872000 -14.13199000
427 1 -11.19334000 -17.41749000 -13.22390000
428 1 -9.93839000 -11.75458000 -11.75458000
429 1 -8.81593000 -11.75458000 -13.57076000
430 2 -10.28525000 -18.88681000 -12.66267000
431 1 -9.37716000 -12.66267000 -12.10144000
432 1 -9.72402000 -17.97872000 -12.31581000
433 1 -8.81593000 -11.75458000 -11.75458000
434 1 -10.28525000 -18.88681000 -18.53995000
435 1 -7.90784000 -13.22390000 -18.88681000
436 2 -9.37716000 -12.66267000 -17.97872000
437 2 -8.46907000 -14.13199000 -17.41749000
438 2 -8.81593000 -11.75458000 -17.63186000
439 1 -7.90784000 -13.22390000 -17.07063000
440 2 -9.37716000 -12.66267000 -16.16254000
441 1 -8.25470000 -12.66267000 -17.97872000
442 1 -8.46907000 -14.13199000 -15.60131000
443 2 -8.81593000 -13.57076000 -16.50940000
444 1 -7.90784000 -15.04008000 -15.94817000
445 2 -9.37716000 -17.41749000 -15.04008000
446 1 -8.81593000 -16.50940000 -14.69322000
447 1 -9.37716000 -17.41749000 -13.22390000
448 2 -8.46907000 -18.88681000 -12.66267000
449 1 -7.90784000 -17.97872000 -12.31581000
450 1 -7.90784000 -12.10144000 -18.88681000
451 1 -7.90784000 -12.10144000 -17.07063000
452 1 -7.34661000 -12.31581000 -15.60131000
453 2 -7.34661000 -17.07063000 -12.66267000
454 1 -6.43852000 -18.53995000 -12.10144000
455 2 -7.34661000 -17.07063000 -18.53995000
456 2 -6.43852000 -18.53995000 -17.97872000
457 2 -6.99975000 -11.75458000 -16.50940000
458 2 -7.34661000 -18.88681000 -17.41749000
459 1 -6.43852000 -18.53995000 -16.16254000
460 2 -5.53043000 -12.31581000 -15.60131000
461 1 -5.87729000 -11.75458000 -16.50940000
462 1 -7.34661000 -18.88681000 -15.60131000
463 1 -4.96920000 -13.22390000 -15.94817000
464 1 -6.43852000 -15.60131000 -15.04008000
465 1 -6.99975000 -16.50940000 -13.57076000
466 1 -4.96920000 -16.16254000 -14.13199000
467 1 -6.43852000 -15.60131000 -13.22390000
468 1 -5.53043000 -17.07063000 -12.66267000
469 2 -6.99975000 -16.50940000 -11.75458000
470 1 -5.87729000 -16.50940000 -13.57076000
471 1 -7.34661000 -15.94817000 -12.66267000
472 2 -6.09166000 -17.97872000 -18.88681000
473 1 -6.43852000 -17.41749000 -12.10144000
474 2 -4.06111000 -17.63186000 -11.75458000
475 1 -5.53043000 -17.07063000 -18.53995000
476 1 -4.40797000 -17.07063000 -12.66267000
477 2 -5.87729000 -16.50940000 -11.75458000
478 1 -4.62234000 -18.53995000 -17.97872000
479 1 -6.09166000 -17.97872000 -17.07063000
480 1 -4.96920000 -17.97872000 -18.88681000
481 2 -6.43852000 -17.41749000 -17.97872000
482 1 -5.53043000 -18.88681000 -17.41749000
483 2 -11.19334000 -18.53995000 -17.97872000
484 2 -4.96920000 -17.97872000 -17.07063000
485 1 -6.43852000 -17.41749000 -16.16254000
486 1 -10.28525000 -12.31581000 -17.41749000
487 1 -4.06111000 -11.75458000 -16.50940000
488 1 -5.53043000 -18.88681000 -15.60131000
489 1 -10.28525000 -12.31581000 -15.60131000
490 1 -4.40797000 -18.88681000 -15.60131000
491 2 -4.62234000 -15.60131000 -15.04008000
492 1 -10.84648000 -16.16254000 -14.13199000
493 1 -4.62234000 -15.60131000 -13.22390000
494 2 -11.19334000 -15.60131000 -15.04008000
495 2 -4.06111000 -16.50940000 -13.57076000
496 2 -5.53043000 -15.94817000 -12.66267000
497 1 -9.72402000 -16.16254000 -14.13199000
498 1 -11.19334000 -15.60131000 -13.22390000
499 1 -10.28525000 -17.07063000 -12.66267000
500 2 -4.06111000 -16.50940000 -11.75458000
501 1 -10.84648000 -17.97872000 -18.88681000
502 1 -4.62234000 -17.41749000 -17.97872000
503 1 -8.81593000 -17.63186000 -11.75458000
504 1 -10.28525000 -17.07063000 -18.53995000
505 1 -4.06111000 -16.50940000 -17.63186000
506 2 -9.37716000 -18.53995000 -17.97872000
507 2 -10.84648000 -17.97872000 -17.07063000
508 1 -9.72402000 -17.97872000 -18.88681000
509 1 -11.19334000 -17.41749000 -17.97872000
510 1 -9.93839000 -11.75458000 -16.50940000
511 1 -10.28525000 -18.88681000 -17.41749000
512 1 -9.37716000 -18.53995000 -16.16254000
513 2 -8.25470000 -18.53995000 -17.97872000
514 1 -9.72402000 -17.97872000 -17.07063000
515 1 -8.81593000 -11.75458000 -16.50940000
516 1 -10.28525000 -18.88681000 -15.60131000
517 2 -7.90784000 -13.22390000 -15.94817000
518 2 -9.37716000 -15.60131000 -15.04008000
519 1 -7.90784000 -16.16254000 -14.13199000
520 1 -9.37716000 -15.60131000 -13.22390000
521 1 -8.25470000 -15.60131000 -15.04008000
522 1 -8.46907000 -17.07063000 -12.66267000
523 1 -9.93839000 -16.50940000 -11.75458000
524 2 -8.81593000 -16.50940000 -13.57076000
525 1 -10.28525000 -15.94817000 -12.66267000
526 1 -8.25470000 -15.60131000 -13.22390000
527 2 -8.46907000 -17.07063000 -18.53995000
528 2 -8.81593000 -16.50940000 -11.75458000
529 1 -10.28525000 -15.94817000 -18.53995000
530 1 -7.90784000 -17.97872000 -18.88681000
531 2 -9.37716000 -17.41749000 -17.97872000
532 1 -8.81593000 -16.50940000 -17.63186000
533 2 -7.90784000 -17.97872000 -17.07063000
534 2 -8.46907000 -18.88681000 -15.60131000
535 1 -7.34661000 -17.07063000 -17.41749000
536 1 -7.34661000 -17.07063000 -15.60131000
537 1 -6.43852000 -15.60131000 -12.10144000
538 1 -4.96920000 -16.16254000 -18.88681000
539 1 -5.53043000 -17.07063000 -17.41749000
540 1 -6.99975000 -16.50940000 -16.50940000
541 2 -4.96920000 -16.16254000 -17.07063000
542 1 -6.43852000 -15.60131000 -16.16254000
543 1 -4.06111000 -17.63186000 -16.50940000
544 1 -5.53043000 -17.07063000 -15.60131000
545 1 -5.87729000 -16.50940000 -16.50940000
546 1 -7.34661000 -15.94817000 -15.60131000
547 1 -4.96920000 -17.97872000 -15.94817000
548 1 -4.40797000 -17.07063000 -15.60131000
549 1 -4.62234000 -15.60131000 -17.97872000
550 2 -11.19334000 -15.60131000 -12.10144000
551 2 -10.84648000 -16.16254000 -17.07063000
552 1 -11.19334000 -15.60131000 -17.97872000
553 1 -10.28525000 -17.07063000 -17.41749000
554 1 -4.06111000 -16.50940000 -16.50940000
555 2 -5.53043000 -15.94817000 -15.60131000
556 1 -10.84648000 -17.97872000 -15.94817000
557 1 -11.19334000 -15.60131000 -16.16254000
558 1 -8.81593000 -17.63186000 -16.50940000
559 1 -10.28525000 -17.07063000 -15.60131000
560 1 -9.37716000 -15.60131000 -12.10144000
561 2 -7.90784000 -16.16254000 -18.88681000
562 1 -9.37716000 -15.60131000 -17.97872000
563 1 -9.93839000 -16.50940000 -16.50940000
564 1 -7.90784000 -16.16254000 -17.07063000
565 1 -9.37716000 -15.60131000 -16.16254000
566 2 -8.25470000 -15.60131000 -17.97872000
567 1 -8.46907000 -17.07063000 -15.60131000
568 1 -8.81593000 -16.50940000 -16.50940000
569 1 -10.28525000 -15.94817000 -15.60131000
570 2 -7.90784000 -17.97872000 -15.94817000
571 1 0.69372000 -14.69322000 -14.69322000
572 1 1.81618000 -14.69322000 -14.69322000
573 1 0.69372000 -13.57076000 -14.69322000
574 1 3.63236000 -14.69322000 -14.69322000
575 1 2.16304000 -14.13199000 -13.78513000
576 2 2.72427000 -15.04008000 -14.13199000
577 1 2.72427000 -15.04008000 -12.31581000
578 1 3.63236000 -13.57076000 -14.69322000
579 2 -3.15301000 -15.04008000 -14.13199000
580 2 -1.12246000 -14.69322000 -14.69322000
581 2 -2.59178000 -14.13199000 -13.78513000
582 1 -2.03055000 -15.04008000 -14.13199000
583 1 -1.12246000 -13.57076000 -14.69322000
584 1 -0.21437000 -15.04008000 -14.13199000
585 2 -0.21437000 -15.04008000 -12.31581000
586 2 0.69372000 -14.69322000 -13.57076000
587 1 1.25495000 -13.78513000 -13.22390000
588 2 0.69372000 -14.69322000 -11.75458000
589 2 0.34686000 -14.13199000 -12.66267000
590 1 1.81618000 -14.69322000 -11.75458000
591 1 0.34686000 -14.13199000 -18.53995000
592 1 0.69372000 -11.75458000 -14.69322000
593 2 1.60181000 -13.22390000 -14.13199000
594 2 1.25495000 -12.66267000 -15.04008000
595 1 1.81618000 -11.75458000 -14.69322000
596 2 2.72427000 -13.22390000 -14.13199000
597 1 1.25495000 -12.66267000 -13.22390000
598 1 3.63236000 -14.69322000 -13.57076000
599 1 2.16304000 -14.13199000 -12.66267000
600 2 0.69372000 -13.57076000 -11.75458000
601 1 2.72427000 -13.22390000 -12.31581000
602 2 3.63236000 -14.69322000 -11.75458000
603 1 2.16304000 -14.13199000 -18.53995000
604 2 3.28550000 -14.13199000 -12.66267000
605 1 1.81618000 -13.57076000 -11.75458000
606 2 2.72427000 -15.04008000 -18.88681000
607 1 3.28550000 -14.13199000 -18.53995000
608 1 2.72427000 -15.04008000 -17.07063000
609 1 3.07113000 -12.66267000 -15.04008000
610 1 3.63236000 -11.75458000 -14.69322000
611 1 -3.15301000 -13.22390000 -14.13199000
612 2 3.07113000 -12.66267000 -13.22390000
613 1 -3.49987000 -12.66267000 -15.04008000
614 1 2.72427000 -12.10144000 -14.13199000
615 2 3.63236000 -13.57076000 -13.57076000
616 2 -2.03055000 -13.22390000 -14.13199000
617 1 -3.49987000 -12.66267000 -13.22390000
618 1 -1.12246000 -14.69322000 -13.57076000
619 2 -2.59178000 -14.13199000 -12.66267000
620 2 3.63236000 -13.57076000 -11.75458000
621 1 -3.15301000 -15.04008000 -18.88681000
622 1 -1.12246000 -14.69322000 -11.75458000
623 2 -2.59178000 -14.13199000 -18.53995000
624 1 -3.15301000 -15.04008000 -17.07063000
625 2 -2.03055000 -15.04008000 -18.88681000
626 1 -2.03055000 -15.04008000 -17.07063000
627 1 -1.68369000 -12.66267000 -15.04008000
628 1 -3.15301000 -12.10144000 -14.13199000
629 1 -1.12246000 -11.75458000 -14.69322000
630 1 -2.59178000 -18.88681000 -13.78513000
631 2 -0.21437000 -13.22390000 -14.13199000
632 1 -1.68369000 -12.66267000 -13.22390000
633 1 -0.56123000 -12.66267000 -15.04008000
634 1 -2.03055000 -12.10144000 -14.13199000
635 2 -0.77560000 -14.13199000 -12.66267000
636 1 -1.12246000 -13.57076000 -13.57076000
637 1 -0.21437000 -13.22390000 -12.31581000
638 2 -0.56123000 -12.66267000 -13.22390000
639 1 -0.77560000 -14.13199000 -18.53995000
640 1 -1.12246000 -13.57076000 -11.75458000
641 1 -0.21437000 -15.04008000 -18.88681000
642 1 -0.21437000 -15.04008000 -17.07063000
643 1 -0.21437000 -12.10144000 -14.13199000
644 1 0.34686000 -12.31581000 -12.66267000
645 2 1.25495000 -13.78513000 -17.97872000
646 1 0.69372000 -14.69322000 -16.50940000
647 2 0.34686000 -14.13199000 -17.41749000
648 1 1.81618000 -14.69322000 -16.50940000
649 1 0.34686000 -14.13199000 -15.60131000
650 1 1.25495000 -18.53995000 -15.04008000
651 1 0.69372000 -11.75458000 -13.57076000
652 1 1.25495000 -18.53995000 -13.22390000
653 1 2.16304000 -12.31581000 -12.66267000
654 1 0.69372000 -11.75458000 -11.75458000
655 1 1.81618000 -11.75458000 -13.57076000
656 2 0.34686000 -18.88681000 -12.66267000
657 1 1.25495000 -12.66267000 -12.10144000
658 2 1.81618000 -11.75458000 -11.75458000
659 1 0.34686000 -18.88681000 -18.53995000
660 2 2.72427000 -13.22390000 -18.88681000
661 2 1.25495000 -12.66267000 -17.97872000
662 2 2.16304000 -14.13199000 -17.41749000
663 1 0.69372000 -13.57076000 -16.50940000
664 1 -3.49987000 -13.78513000 -17.97872000
665 2 2.72427000 -13.22390000 -17.07063000
666 1 1.25495000 -12.66267000 -16.16254000
667 1 3.63236000 -14.69322000 -16.50940000
668 1 2.16304000 -14.13199000 -15.60131000
669 1 3.28550000 -14.13199000 -17.41749000
670 1 1.81618000 -13.57076000 -16.50940000
671 2 2.72427000 -15.04008000 -15.94817000
672 2 3.28550000 -14.13199000 -15.60131000
673 2 0.69372000 -16.50940000 -14.69322000
674 2 1.60181000 -17.97872000 -14.13199000